REMARK  Name = 
REMARK  5 active torsions:
REMARK  status: ('A' for Active; 'I' for Inactive)
REMARK    1  A    between atoms: C_1  and  C_2
REMARK    2  A    between atoms: C_2  and  C_3
REMARK    3  A    between atoms: C_3  and  C_4
REMARK    4  A    between atoms: N_6  and  C_7
REMARK    5  A    between atoms: C_12  and  C_14
REMARK                            x       y       z     vdW  Elec       q    Type
REMARK                         _______ _______ _______ _____ _____    ______ ____
ROOT
ATOM      1  C   UNL     1       1.854   2.034   0.484  0.00  0.00    +0.000 C 
ATOM      2  C   UNL     1       2.899   0.936   0.771  0.00  0.00    +0.000 C 
ATOM      3  C   UNL     1       3.751   1.327   1.950  0.00  0.00    +0.000 C 
ATOM      4  C   UNL     1       4.502   2.557   1.516  0.00  0.00    +0.000 C 
ATOM      5  N   UNL     1       3.583   3.636   1.123  0.00  0.00    +0.000 N 
ATOM      6  C   UNL     1       3.374   4.840   1.787  0.00  0.00    +0.000 C 
ATOM      7  O   UNL     1       2.532   5.652   1.463  0.00  0.00    +0.000 OA
ATOM      8  C   UNL     1       2.630   3.293   0.082  0.00  0.00    +0.000 C 
ENDROOT
BRANCH   6   9
ATOM      9  C   UNL     1       4.264   5.147   2.922  0.00  0.00    +0.000 A 
ATOM     10  C   UNL     1       5.652   5.137   2.703  0.00  0.00    +0.000 A 
ATOM     11  C   UNL     1       6.521   5.372   3.760  0.00  0.00    +0.000 A 
ATOM     12  C   UNL     1       5.998   5.671   5.011  0.00  0.00    +0.000 A 
ATOM     13  F   UNL     1       6.837   5.914   6.026  0.00  0.00    +0.000 F 
ATOM     14  C   UNL     1       4.625   5.725   5.231  0.00  0.00    +0.000 A 
ATOM     15  C   UNL     1       3.746   5.454   4.183  0.00  0.00    +0.000 A 
ATOM     16 CL   UNL     1       2.054   5.472   4.527  0.00  0.00    +0.000 Cl
ENDBRANCH   6   9
BRANCH   1  19
ATOM     17  C   UNL     1       0.377   1.338   2.496  0.00  0.00    +0.000 C 
ATOM     18  O   UNL     1      -0.332   1.769   3.409  0.00  0.00    +0.000 OA
ATOM     19  N   UNL     1       0.907   2.230   1.600  0.00  0.00    +0.000 N 
ATOM     20  H   UNL     1       0.522   3.165   1.722  0.00  0.00    +0.000 HD
BRANCH  17  21
ATOM     21  C   UNL     1       0.709  -0.151   2.436  0.00  0.00    +0.000 C 
BRANCH  21  23
ATOM     22  C   UNL     1       0.413  -0.348  -0.217  0.00  0.00    +0.000 C 
ATOM     23  C   UNL     1       0.231  -0.929   1.182  0.00  0.00    +0.000 C 
ENDBRANCH  21  23
ENDBRANCH  17  21
ENDBRANCH   1  19
TORSDOF 4
