REMARK  Name = 
REMARK  7 active torsions:
REMARK  status: ('A' for Active; 'I' for Inactive)
REMARK    1  A    between atoms: C_1  and  C_2
REMARK    2  A    between atoms: C_2  and  C_3
REMARK    3  A    between atoms: C_6  and  S_7
REMARK    4  A    between atoms: S_7  and  C_8
REMARK    5  A    between atoms: C_8  and  C_9
REMARK    6  A    between atoms: N_11  and  C_12
REMARK    7  A    between atoms: N_17  and  C_18
REMARK                            x       y       z     vdW  Elec       q    Type
REMARK                         _______ _______ _______ _____ _____    ______ ____
ROOT
ATOM      1  C   UNL     1       0.881   2.488   0.541  0.00  0.00    +0.000 A 
ATOM      2  N   UNL     1       0.563   3.704   0.963  0.00  0.00    +0.000 NA
ATOM      3  N   UNL     1       1.275   4.621   0.207  0.00  0.00    +0.000 NA
ATOM      4  C   UNL     1       2.025   3.935  -0.636  0.00  0.00    +0.000 A 
ATOM      5  N   UNL     1       1.758   2.597  -0.520  0.00  0.00    +0.000 N 
ENDROOT
BRANCH   5   6
ATOM      6  C   UNL     1       2.471   1.560  -1.160  0.00  0.00    +0.000 A 
ATOM      7  C   UNL     1       3.745   1.295  -0.734  0.00  0.00    +0.000 A 
ATOM      8  C   UNL     1       4.590   0.509  -1.584  0.00  0.00    +0.000 A 
ATOM      9  C   UNL     1       4.131  -0.296  -2.566  0.00  0.00    +0.000 A 
ATOM     10  C   UNL     1       2.786  -0.216  -2.793  0.00  0.00    +0.000 A 
ATOM     11  C   UNL     1       1.981   0.787  -2.201  0.00  0.00    +0.000 A 
ENDBRANCH   5   6
BRANCH   1  13
ATOM     12  C   UNL     1       0.811  -0.059   0.353  0.00  0.00    +0.000 C 
ATOM     13  C   UNL     1       0.420   1.187   1.128  0.00  0.00    +0.000 C 
ENDBRANCH   1  13
BRANCH   4  14
ATOM     14  S   UNL     1       2.960   4.570  -1.938  0.00  0.00    +0.000 S 
BRANCH  14  15
ATOM     15  C   UNL     1       4.441   3.398  -2.337  0.00  0.00    +0.000 C 
BRANCH  15  16
ATOM     16  C   UNL     1       5.586   3.033  -1.142  0.00  0.00    +0.000 C 
ATOM     17  O   UNL     1       6.173   2.056  -0.760  0.00  0.00    +0.000 OA
ATOM     18  N   UNL     1       6.113   3.879  -0.281  0.00  0.00    +0.000 N 
ATOM     19  H   UNL     1       6.703   3.302   0.328  0.00  0.00    +0.000 HD
BRANCH  18  20
ATOM     20  C   UNL     1       6.617   5.085  -0.674  0.00  0.00    +0.000 C 
ATOM     21  C   UNL     1       5.952   5.714  -1.859  0.00  0.00    +0.000 C 
ATOM     22  C   UNL     1       6.119   7.161  -1.627  0.00  0.00    +0.000 C 
ATOM     23  C   UNL     1       6.191   7.279  -0.097  0.00  0.00    +0.000 C 
ATOM     24  C   UNL     1       6.168   5.899   0.488  0.00  0.00    +0.000 C 
ENDBRANCH  18  20
ENDBRANCH  15  16
ENDBRANCH  14  15
ENDBRANCH   4  14
TORSDOF 6
