REMARK  Name = 
REMARK  10 active torsions:
REMARK  status: ('A' for Active; 'I' for Inactive)
REMARK    1  A    between atoms: C_1  and  C_2
REMARK    2  A    between atoms: C_2  and  C_3
REMARK    3  A    between atoms: C_3  and  C_5
REMARK    4  A    between atoms: C_11  and  O_12
REMARK    5  A    between atoms: O_12  and  C_13
REMARK    6  A    between atoms: C_13  and  C_14
REMARK    7  A    between atoms: N_16  and  C_17
REMARK    8  A    between atoms: C_17  and  C_18
REMARK    9  A    between atoms: C_17  and  C_19
REMARK   10  A    between atoms: C_19  and  C_20
REMARK                            x       y       z     vdW  Elec       q    Type
REMARK                         _______ _______ _______ _____ _____    ______ ____
ROOT
ATOM      1  C   UNL     1       0.779  -4.932   0.624  0.00  0.00    +0.000 C 
ENDROOT
BRANCH   1   2
ATOM      2  C   UNL     1      -0.077  -4.465   1.863  0.00  0.00    +0.000 C 
ATOM      3  O   UNL     1      -1.164  -3.887   1.777  0.00  0.00    +0.000 OA
ATOM      4  N   UNL     1       0.460  -4.730   3.102  0.00  0.00    +0.000 N 
ATOM      5  H   UNL     1      -0.081  -4.308   3.851  0.00  0.00    +0.000 HD
BRANCH   4   6
ATOM      6  C   UNL     1       1.031  -6.032   3.346  0.00  0.00    +0.000 C 
ATOM      7  C   UNL     1       2.232  -5.862   4.258  0.00  0.00    +0.000 C 
BRANCH   6   8
ATOM      8  C   UNL     1      -0.017  -7.003   3.909  0.00  0.00    +0.000 C 
BRANCH   8   9
ATOM      9  C   UNL     1      -1.151  -7.309   2.981  0.00  0.00    +0.000 A 
ATOM     10  C   UNL     1      -1.643  -8.493   2.485  0.00  0.00    +0.000 A 
ATOM     11  C   UNL     1      -2.719  -8.164   1.625  0.00  0.00    +0.000 A 
ATOM     12  C   UNL     1      -2.823  -6.795   1.646  0.00  0.00    +0.000 A 
ATOM     13  O   UNL     1      -1.917  -6.284   2.517  0.00  0.00    +0.000 OA
ENDBRANCH   8   9
ENDBRANCH   6   8
ENDBRANCH   4   6
ENDBRANCH   1   2
BRANCH   1  14
ATOM     14  O   UNL     1       2.221  -5.005   0.691  0.00  0.00    +0.000 OA
BRANCH  14  21
ATOM     15  C   UNL     1       2.663  -2.555   0.578  0.00  0.00    +0.000 A 
ATOM     16  C   UNL     1       3.563  -1.525   0.895  0.00  0.00    +0.000 A 
ATOM     17  C   UNL     1       4.887  -1.790   1.149  0.00  0.00    +0.000 A 
ATOM     18  F   UNL     1       5.721  -0.767   1.374  0.00  0.00    +0.000 F 
ATOM     19  C   UNL     1       5.326  -3.097   1.180  0.00  0.00    +0.000 A 
ATOM     20  C   UNL     1       4.399  -4.146   0.999  0.00  0.00    +0.000 A 
ATOM     21  C   UNL     1       3.031  -3.894   0.727  0.00  0.00    +0.000 A 
BRANCH  15  22
ATOM     22  C   UNL     1       1.272  -2.115   0.516  0.00  0.00    +0.000 C 
ATOM     23  O   UNL     1       0.685  -2.226   1.555  0.00  0.00    +0.000 OA
BRANCH  22  25
ATOM     24  C   UNL     1       1.004   0.171  -0.129  0.00  0.00    +0.000 C 
ATOM     25  C   UNL     1       0.699  -1.246  -0.567  0.00  0.00    +0.000 C 
ENDBRANCH  22  25
ENDBRANCH  15  22
ENDBRANCH  14  21
ENDBRANCH   1  14
TORSDOF 8
