REMARK  Name = 
REMARK  7 active torsions:
REMARK  status: ('A' for Active; 'I' for Inactive)
REMARK    1  A    between atoms: C_1  and  C_2
REMARK    2  A    between atoms: C_2  and  C_3
REMARK    3  A    between atoms: C_3  and  C_4
REMARK    4  A    between atoms: C_5  and  C_6
REMARK    5  A    between atoms: C_18  and  C_19
REMARK    6  A    between atoms: C_20  and  C_21
REMARK    7  A    between atoms: C_21  and  C_22
REMARK                            x       y       z     vdW  Elec       q    Type
REMARK                         _______ _______ _______ _____ _____    ______ ____
ROOT
ATOM      1  C   UNL     1       0.746   0.612   3.233  0.00  0.00    +0.000 A 
ATOM      2  C   UNL     1       1.335   1.754   2.644  0.00  0.00    +0.000 A 
ATOM      3  N   UNL     1       0.578   2.805   3.185  0.00  0.00    +0.000 N 
ATOM      4  C   UNL     1      -0.470   2.364   3.995  0.00  0.00    +0.000 A 
ATOM      5  C   UNL     1      -1.344   3.372   4.669  0.00  0.00    +0.000 C 
ATOM      6  C   UNL     1      -0.457   0.979   3.985  0.00  0.00    +0.000 A 
ATOM      7  H   UNL     1       0.736   3.776   2.948  0.00  0.00    +0.000 HD
ENDROOT
BRANCH   2   8
ATOM      8  C   UNL     1       2.395   2.032   1.556  0.00  0.00    +0.000 C 
ATOM      9  O   UNL     1       2.736   3.174   1.346  0.00  0.00    +0.000 OA
ATOM     10  N   UNL     1       3.075   0.974   0.839  0.00  0.00    +0.000 N 
ATOM     11  C   UNL     1       4.410   0.613   1.278  0.00  0.00    +0.000 C 
ATOM     12  C   UNL     1       4.807  -0.686   0.528  0.00  0.00    +0.000 C 
ATOM     13  C   UNL     1       3.870  -0.849  -0.688  0.00  0.00    +0.000 C 
ATOM     14  C   UNL     1       3.271  -2.248  -1.083  0.00  0.00    +0.000 C 
ATOM     15  C   UNL     1       2.188  -2.025  -2.182  0.00  0.00    +0.000 C 
ATOM     16  C   UNL     1       1.030  -1.169  -1.696  0.00  0.00    +0.000 C 
ATOM     17  C   UNL     1       1.563   0.328  -1.452  0.00  0.00    +0.000 C 
ATOM     18  C   UNL     1       2.759   0.178  -0.418  0.00  0.00    +0.000 C 
ENDBRANCH   2   8
BRANCH   6  19
ATOM     19  C   UNL     1      -1.430  -0.020   4.533  0.00  0.00    +0.000 C 
ATOM     20  C   UNL     1      -2.562   0.326   5.459  0.00  0.00    +0.000 C 
ATOM     21  O   UNL     1      -1.340  -1.211   4.261  0.00  0.00    +0.000 OA
ENDBRANCH   6  19
BRANCH   1  22
ATOM     22  C   UNL     1       1.027  -0.824   2.880  0.00  0.00    +0.000 C 
BRANCH  22  24
ATOM     23  C   UNL     1      -0.012  -0.067   0.798  0.00  0.00    +0.000 C 
ATOM     24  C   UNL     1       0.141  -1.246   1.699  0.00  0.00    +0.000 C 
ENDBRANCH  22  24
ENDBRANCH   1  22
TORSDOF 4
