REMARK  Name = 
REMARK  4 active torsions:
REMARK  status: ('A' for Active; 'I' for Inactive)
REMARK    1  A    between atoms: C_1  and  C_2
REMARK    2  A    between atoms: C_2  and  C_3
REMARK    3  A    between atoms: C_3  and  C_4
REMARK    4  A    between atoms: C_3  and  N_5
REMARK                            x       y       z     vdW  Elec       q    Type
REMARK                         _______ _______ _______ _____ _____    ______ ____
ROOT
ATOM      1  N   UNL     1       0.364   2.116   3.190  0.00  0.00    +0.000 N 
ATOM      2  C   UNL     1       0.733   3.327   3.804  0.00  0.00    +0.000 C 
ATOM      3  O   UNL     1       1.876   3.783   3.826  0.00  0.00    +0.000 OA
ATOM      4  C   UNL     1      -0.475   4.133   4.250  0.00  0.00    +0.000 C 
ATOM      5  C   UNL     1      -1.403   3.311   5.126  0.00  0.00    +0.000 C 
ATOM      6  C   UNL     1      -1.799   2.018   4.403  0.00  0.00    +0.000 C 
ATOM      7  C   UNL     1      -2.722   1.159   5.277  0.00  0.00    +0.000 C 
ATOM      8  N   UNL     1      -2.975  -0.125   4.660  0.00  0.00    +0.000 N 
ATOM      9  C   UNL     1      -4.220  -0.535   4.276  0.00  0.00    +0.000 A 
ATOM     10  N   UNL     1      -4.981   0.273   3.515  0.00  0.00    +0.000 NA
ATOM     11  C   UNL     1      -6.204  -0.190   3.152  0.00  0.00    +0.000 A 
ATOM     12  C   UNL     1      -6.711  -1.392   3.568  0.00  0.00    +0.000 A 
ATOM     13  F   UNL     1      -7.938  -1.808   3.235  0.00  0.00    +0.000 F 
ATOM     14  C   UNL     1      -5.877  -2.141   4.352  0.00  0.00    +0.000 A 
ATOM     15  N   UNL     1      -4.625  -1.753   4.685  0.00  0.00    +0.000 NA
ATOM     16  C   UNL     1      -1.836  -0.947   4.360  0.00  0.00    +0.000 C 
ATOM     17  C   UNL     1      -0.923  -0.127   3.477  0.00  0.00    +0.000 C 
ATOM     18  C   UNL     1      -0.521   1.243   4.019  0.00  0.00    +0.000 C 
ENDROOT
BRANCH   1  19
ATOM     19  C   UNL     1       0.932   1.826   1.826  0.00  0.00    +0.000 C 
ATOM     20  C   UNL     1       0.437   2.900   0.843  0.00  0.00    +0.000 C 
BRANCH  19  22
ATOM     21  C   UNL     1       1.063   0.069  -0.143  0.00  0.00    +0.000 C 
ATOM     22  C   UNL     1       0.587   0.457   1.232  0.00  0.00    +0.000 C 
ENDBRANCH  19  22
ENDBRANCH   1  19
TORSDOF 2
