REMARK  Name = 
REMARK  9 active torsions:
REMARK  status: ('A' for Active; 'I' for Inactive)
REMARK    1  A    between atoms: C_1  and  C_2
REMARK    2  A    between atoms: C_2  and  O_3
REMARK    3  A    between atoms: O_3  and  C_4
REMARK    4  A    between atoms: C_4  and  C_6
REMARK    5  A    between atoms: C_15  and  O_17
REMARK    6  A    between atoms: O_17  and  C_18
REMARK    7  A    between atoms: C_18  and  C_19
REMARK    8  A    between atoms: C_18  and  C_20
REMARK    9  A    between atoms: C_18  and  C_21
REMARK                            x       y       z     vdW  Elec       q    Type
REMARK                         _______ _______ _______ _____ _____    ______ ____
ROOT
ATOM      1  C   UNL     1       2.839  -2.791  -2.639  0.00  0.00    +0.000 C 
ATOM      2  C   UNL     1       4.350  -2.552  -2.438  0.00  0.00    +0.000 C 
ATOM      3  C   UNL     1       5.015  -3.372  -1.349  0.00  0.00    +0.000 C 
ATOM      4  C   UNL     1       4.687  -2.840   0.055  0.00  0.00    +0.000 C 
ATOM      5  C   UNL     1       3.584  -3.536   0.839  0.00  0.00    +0.000 C 
ATOM      6  C   UNL     1       2.901  -4.740   0.206  0.00  0.00    +0.000 C 
ATOM      7  C   UNL     1       3.255  -5.026  -1.257  0.00  0.00    +0.000 C 
ATOM      8  C   UNL     1       2.321  -4.165  -2.157  0.00  0.00    +0.000 C 
ATOM      9  N   UNL     1       4.667  -4.766  -1.509  0.00  0.00    +0.000 N 
ATOM     10  C   UNL     1       5.682  -5.652  -1.890  0.00  0.00    +0.000 C 
ATOM     11  O   UNL     1       6.823  -5.262  -2.085  0.00  0.00    +0.000 OA
ENDROOT
BRANCH   1  12
ATOM     12  C   UNL     1       2.180  -1.493  -2.171  0.00  0.00    +0.000 C 
ATOM     13  O   UNL     1       2.819  -0.444  -2.088  0.00  0.00    +0.000 OA
BRANCH  12  14
ATOM     14  O   UNL     1       0.848  -1.520  -1.932  0.00  0.00    +0.000 OA
BRANCH  14  16
ATOM     15  C   UNL     1       0.876   0.038  -0.047  0.00  0.00    +0.000 C 
ATOM     16  C   UNL     1       0.392  -0.222  -1.473  0.00  0.00    +0.000 C 
ENDBRANCH  14  16
ENDBRANCH  12  14
ENDBRANCH   1  12
BRANCH  10  17
ATOM     17  O   UNL     1       5.314  -6.971  -2.027  0.00  0.00    +0.000 OA
BRANCH  17  18
ATOM     18  C   UNL     1       6.350  -7.947  -2.413  0.00  0.00    +0.000 C 
ATOM     19  C   UNL     1       6.935  -7.645  -3.803  0.00  0.00    +0.000 C 
ATOM     20  C   UNL     1       7.470  -8.039  -1.363  0.00  0.00    +0.000 C 
ATOM     21  C   UNL     1       5.691  -9.341  -2.494  0.00  0.00    +0.000 C 
ENDBRANCH  17  18
ENDBRANCH  10  17
TORSDOF 5
