REMARK  Name = 
REMARK  9 active torsions:
REMARK  status: ('A' for Active; 'I' for Inactive)
REMARK    1  A    between atoms: C_1  and  C_2
REMARK    2  A    between atoms: C_2  and  C_3
REMARK    3  A    between atoms: C_5  and  C_6
REMARK    4  A    between atoms: N_7  and  C_8
REMARK    5  A    between atoms: C_8  and  C_9
REMARK    6  A    between atoms: C_9  and  C_10
REMARK    7  A    between atoms: C_10  and  N_11
REMARK    8  A    between atoms: C_12  and  C_14
REMARK    9  A    between atoms: C_19  and  C_20
REMARK                            x       y       z     vdW  Elec       q    Type
REMARK                         _______ _______ _______ _____ _____    ______ ____
ROOT
ATOM      1  N   UNL     1       2.921   0.263   7.513  0.00  0.00    +0.000 N 
ATOM      2  C   UNL     1       3.213   1.089   8.560  0.00  0.00    +0.000 C 
ATOM      3  O   UNL     1       2.353   1.335   9.421  0.00  0.00    +0.000 OA
ATOM      4  H   UNL     1       1.922   0.080   7.461  0.00  0.00    +0.000 HD
ENDROOT
BRANCH   2   5
ATOM      5  C   UNL     1       4.569   1.666   8.679  0.00  0.00    +0.000 A 
ATOM      6  C   UNL     1       5.245   1.445   9.879  0.00  0.00    +0.000 A 
ATOM      7  C   UNL     1       6.518   1.986  10.052  0.00  0.00    +0.000 A 
ATOM      8  C   UNL     1       7.160   2.644   9.001  0.00  0.00    +0.000 A 
ATOM      9  C   UNL     1       6.497   2.852   7.803  0.00  0.00    +0.000 A 
ATOM     10  C   UNL     1       5.175   2.433   7.661  0.00  0.00    +0.000 A 
BRANCH  10  11
ATOM     11  C   UNL     1       4.470   2.827   6.407  0.00  0.00    +0.000 C 
ATOM     12  F   UNL     1       4.681   4.110   6.016  0.00  0.00    +0.000 F 
ATOM     13  F   UNL     1       4.867   2.073   5.344  0.00  0.00    +0.000 F 
ATOM     14  F   UNL     1       3.132   2.738   6.538  0.00  0.00    +0.000 F 
ENDBRANCH  10  11
ENDBRANCH   2   5
BRANCH   1  15
ATOM     15  C   UNL     1       3.805  -0.141   6.428  0.00  0.00    +0.000 C 
BRANCH  15  16
ATOM     16  C   UNL     1       3.610  -1.549   5.973  0.00  0.00    +0.000 C 
BRANCH  16  17
ATOM     17  C   UNL     1       2.171  -1.816   5.517  0.00  0.00    +0.000 C 
BRANCH  17  22
ATOM     18  C   UNL     1       1.040  -0.812   2.342  0.00  0.00    +0.000 A 
ATOM     19  C   UNL     1       1.025   0.457   2.909  0.00  0.00    +0.000 A 
ATOM     20  C   UNL     1       1.313   0.264   4.226  0.00  0.00    +0.000 A 
ATOM     21  C   UNL     1       1.329   1.375   5.176  0.00  0.00    +0.000 C 
ATOM     22  N   UNL     1       1.685  -1.061   4.361  0.00  0.00    +0.000 N 
ATOM     23  N   UNL     1       1.456  -1.746   3.206  0.00  0.00    +0.000 NA
BRANCH  18  25
ATOM     24  C   UNL     1       1.070  -0.005  -0.007  0.00  0.00    +0.000 C 
ATOM     25  C   UNL     1       0.595  -1.092   0.956  0.00  0.00    +0.000 C 
ENDBRANCH  18  25
ENDBRANCH  17  22
ENDBRANCH  16  17
ENDBRANCH  15  16
ENDBRANCH   1  15
TORSDOF 7
