REMARK  Name = 
REMARK  9 active torsions:
REMARK  status: ('A' for Active; 'I' for Inactive)
REMARK    1  A    between atoms: C_1  and  C_2
REMARK    2  A    between atoms: C_2  and  C_3
REMARK    3  A    between atoms: C_3  and  C_4
REMARK    4  A    between atoms: C_3  and  C_5
REMARK    5  A    between atoms: C_5  and  N_6
REMARK    6  A    between atoms: C_10  and  C_11
REMARK    7  A    between atoms: C_11  and  O_12
REMARK    8  A    between atoms: O_12  and  C_13
REMARK    9  A    between atoms: C_13  and  C_15
REMARK                            x       y       z     vdW  Elec       q    Type
REMARK                         _______ _______ _______ _____ _____    ______ ____
ROOT
ATOM      1  C   UNL     1       2.471  -6.002   4.332  0.00  0.00    +0.000 C 
ENDROOT
BRANCH   1   6
ATOM      2  N   UNL     1       0.979  -3.871   1.520  0.00  0.00    +0.000 NA
ATOM      3  C   UNL     1       0.015  -4.867   1.046  0.00  0.00    +0.000 C 
ATOM      4  C   UNL     1      -0.596  -5.684   2.194  0.00  0.00    +0.000 C 
ATOM      5  O   UNL     1       0.420  -6.342   2.987  0.00  0.00    +0.000 OA
ATOM      6  C   UNL     1       1.352  -5.369   3.498  0.00  0.00    +0.000 C 
ATOM      7  C   UNL     1       1.965  -4.575   2.327  0.00  0.00    +0.000 C 
BRANCH   2   8
ATOM      8  C   UNL     1       0.431  -2.786   2.345  0.00  0.00    +0.000 C 
BRANCH   8   9
ATOM      9  C   UNL     1       1.013  -1.455   1.866  0.00  0.00    +0.000 C 
ATOM     10  C   UNL     1       0.555  -0.358   2.828  0.00  0.00    +0.000 C 
BRANCH   9  12
ATOM     11  C   UNL     1       1.074   0.102  -0.123  0.00  0.00    +0.000 C 
ATOM     12  C   UNL     1       0.556  -1.207   0.426  0.00  0.00    +0.000 C 
ENDBRANCH   9  12
ENDBRANCH   8   9
ENDBRANCH   2   8
ENDBRANCH   1   6
BRANCH   1  13
ATOM     13  O   UNL     1       3.344  -4.987   4.902  0.00  0.00    +0.000 OA
BRANCH  13  14
ATOM     14  C   UNL     1       4.305  -4.431   4.101  0.00  0.00    +0.000 C 
ATOM     15  O   UNL     1       4.565  -4.795   2.953  0.00  0.00    +0.000 OA
BRANCH  14  16
ATOM     16  C   UNL     1       5.017  -3.331   4.715  0.00  0.00    +0.000 A 
ATOM     17  C   UNL     1       5.045  -2.033   4.233  0.00  0.00    +0.000 A 
ATOM     18  S   UNL     1       6.163  -1.047   5.086  0.00  0.00    +0.000 S 
ATOM     19  C   UNL     1       6.608  -2.343   6.093  0.00  0.00    +0.000 A 
ATOM     20  C   UNL     1       5.898  -3.492   5.821  0.00  0.00    +0.000 A 
ATOM     21  C   UNL     1       6.125  -4.773   6.554  0.00  0.00    +0.000 C 
ATOM     22  C   UNL     1       6.786  -4.509   7.903  0.00  0.00    +0.000 C 
ATOM     23  C   UNL     1       8.006  -3.593   7.749  0.00  0.00    +0.000 C 
ATOM     24  C   UNL     1       7.639  -2.213   7.170  0.00  0.00    +0.000 C 
ENDBRANCH  14  16
ENDBRANCH  13  14
ENDBRANCH   1  13
TORSDOF 7
