REMARK  Name = 
REMARK  4 active torsions:
REMARK  status: ('A' for Active; 'I' for Inactive)
REMARK    1  A    between atoms: C_1  and  C_2
REMARK    2  A    between atoms: C_2  and  C_3
REMARK    3  A    between atoms: C_5  and  S_6
REMARK    4  A    between atoms: S_6  and  C_7
REMARK                            x       y       z     vdW  Elec       q    Type
REMARK                         _______ _______ _______ _____ _____    ______ ____
ROOT
ATOM      1  C   UNL     1       0.911  -1.229  -5.802  0.00  0.00    +0.000 A 
ATOM      2  C   UNL     1      -0.360  -1.170  -6.389  0.00  0.00    +0.000 A 
ATOM      3  C   UNL     1      -0.717  -0.092  -7.199  0.00  0.00    +0.000 A 
ATOM      4  C   UNL     1       0.215   0.905  -7.479  0.00  0.00    +0.000 A 
ATOM      5  C   UNL     1       1.495   0.856  -6.927  0.00  0.00    +0.000 A 
ATOM      6  C   UNL     1       1.828  -0.191  -6.051  0.00  0.00    +0.000 A 
ATOM      7  O   UNL     1       2.430   1.830  -7.183  0.00  0.00    +0.000 OA
ATOM      8  C   UNL     1       2.812   1.902  -8.568  0.00  0.00    +0.000 C 
ATOM      9  C   UNL     1       1.810   2.619  -9.472  0.00  0.00    +0.000 C 
ATOM     10  C   UNL     1       0.499   1.857  -9.541  0.00  0.00    +0.000 C 
ATOM     11  O   UNL     1      -0.194   1.923  -8.295  0.00  0.00    +0.000 OA
ENDROOT
BRANCH   1  12
ATOM     12  S   UNL     1       1.349  -2.758  -4.974  0.00  0.00    +0.000 S 
BRANCH  12  15
ATOM     13  C   UNL     1       0.954  -0.161  -2.555  0.00  0.00    +0.000 C 
ATOM     14  C   UNL     1       0.560  -1.623  -2.522  0.00  0.00    +0.000 C 
ATOM     15  C   UNL     1       1.694  -2.304  -3.245  0.00  0.00    +0.000 C 
ATOM     16  C   UNL     1       2.838  -1.340  -3.104  0.00  0.00    +0.000 C 
ATOM     17  O   UNL     1       4.005  -1.568  -3.362  0.00  0.00    +0.000 OA
ATOM     18  O   UNL     1       2.383  -0.141  -2.629  0.00  0.00    +0.000 OA
BRANCH  13  20
ATOM     19  C   UNL     1       0.986   0.080  -0.020  0.00  0.00    +0.000 C 
ATOM     20  C   UNL     1       0.479   0.638  -1.345  0.00  0.00    +0.000 C 
ENDBRANCH  13  20
ENDBRANCH  12  15
ENDBRANCH   1  12
TORSDOF 3
