REMARK  Name = 
REMARK  9 active torsions:
REMARK  status: ('A' for Active; 'I' for Inactive)
REMARK    1  A    between atoms: C_1  and  C_2
REMARK    2  A    between atoms: C_2  and  O_3
REMARK    3  A    between atoms: O_3  and  C_4
REMARK    4  A    between atoms: C_7  and  N_8
REMARK    5  A    between atoms: N_8  and  C_9
REMARK    6  A    between atoms: N_8  and  S_19
REMARK    7  A    between atoms: C_9  and  C_10
REMARK    8  A    between atoms: N_12  and  C_13
REMARK    9  A    between atoms: S_19  and  C_20
REMARK                            x       y       z     vdW  Elec       q    Type
REMARK                         _______ _______ _______ _____ _____    ______ ____
ROOT
ATOM      1  N   UNL     1       6.453   0.158   3.401  0.00  0.00    +0.000 N 
ENDROOT
BRANCH   1   5
ATOM      2  C   UNL     1       2.141  -0.111   2.580  0.00  0.00    +0.000 A 
ATOM      3  C   UNL     1       2.583  -0.241   3.908  0.00  0.00    +0.000 A 
ATOM      4  C   UNL     1       3.985  -0.000   4.269  0.00  0.00    +0.000 A 
ATOM      5  C   UNL     1       4.958   0.387   3.306  0.00  0.00    +0.000 A 
ATOM      6  C   UNL     1       4.417   0.656   2.052  0.00  0.00    +0.000 A 
ATOM      7  C   UNL     1       3.072   0.413   1.709  0.00  0.00    +0.000 A 
BRANCH   2   8
ATOM      8  O   UNL     1       0.896  -0.578   2.258  0.00  0.00    +0.000 OA
BRANCH   8  10
ATOM      9  C   UNL     1       0.781   0.025  -0.204  0.00  0.00    +0.000 C 
ATOM     10  C   UNL     1       0.492  -0.957   0.919  0.00  0.00    +0.000 C 
ENDBRANCH   8  10
ENDBRANCH   2   8
ENDBRANCH   1   5
BRANCH   1  11
ATOM     11  S   UNL     1       7.541   0.722   2.194  0.00  0.00    +0.000 S 
ATOM     12  C   UNL     1       7.350  -0.313   0.711  0.00  0.00    +0.000 C 
ATOM     13  O   UNL     1       7.116   2.068   1.812  0.00  0.00    +0.000 OA
ATOM     14  O   UNL     1       8.884   0.504   2.653  0.00  0.00    +0.000 OA
ENDBRANCH   1  11
BRANCH   1  15
ATOM     15  C   UNL     1       7.112  -0.691   4.478  0.00  0.00    +0.000 C 
BRANCH  15  16
ATOM     16  C   UNL     1       8.022  -1.926   4.099  0.00  0.00    +0.000 C 
ATOM     17  O   UNL     1       9.203  -1.945   4.476  0.00  0.00    +0.000 OA
ATOM     18  N   UNL     1       7.604  -3.087   3.453  0.00  0.00    +0.000 N 
ATOM     19  H   UNL     1       8.387  -3.710   3.279  0.00  0.00    +0.000 HD
BRANCH  18  20
ATOM     20  C   UNL     1       6.302  -3.532   2.912  0.00  0.00    +0.000 C 
ATOM     21  C   UNL     1       5.687  -4.823   3.484  0.00  0.00    +0.000 C 
ATOM     22  C   UNL     1       4.163  -5.012   3.163  0.00  0.00    +0.000 C 
ATOM     23  C   UNL     1       3.333  -3.845   3.610  0.00  0.00    +0.000 C 
ATOM     24  C   UNL     1       3.940  -2.717   2.879  0.00  0.00    +0.000 C 
ATOM     25  C   UNL     1       5.343  -2.493   3.254  0.00  0.00    +0.000 C 
ENDBRANCH  18  20
ENDBRANCH  15  16
ENDBRANCH   1  15
TORSDOF 7
