REMARK  Name = 
REMARK  7 active torsions:
REMARK  status: ('A' for Active; 'I' for Inactive)
REMARK    1  A    between atoms: C_1  and  C_2
REMARK    2  A    between atoms: C_2  and  C_3
REMARK    3  A    between atoms: C_3  and  C_4
REMARK    4  A    between atoms: C_3  and  C_5
REMARK    5  A    between atoms: C_3  and  N_17
REMARK    6  A    between atoms: C_5  and  N_6
REMARK    7  A    between atoms: C_7  and  C_9
REMARK                            x       y       z     vdW  Elec       q    Type
REMARK                         _______ _______ _______ _____ _____    ______ ____
ROOT
ATOM      1  N   UNL     1       0.962  -0.214   4.346  0.00  0.00    +0.000 N 
ATOM      2  C   UNL     1       1.819  -0.224   5.428  0.00  0.00    +0.000 C 
ATOM      3  O   UNL     1       2.278  -1.270   5.845  0.00  0.00    +0.000 OA
ATOM      4  H   UNL     1       0.764  -1.141   3.991  0.00  0.00    +0.000 HD
ENDROOT
BRANCH   2   5
ATOM      5  C   UNL     1       2.231   1.061   6.034  0.00  0.00    +0.000 A 
ATOM      6  C   UNL     1       3.592   1.283   6.271  0.00  0.00    +0.000 A 
ATOM      7  C   UNL     1       4.019   2.535   6.722  0.00  0.00    +0.000 A 
ATOM      8  C   UNL     1       3.091   3.561   6.923  0.00  0.00    +0.000 A 
ATOM      9  C   UNL     1       1.734   3.321   6.717  0.00  0.00    +0.000 A 
ATOM     10 CL   UNL     1       0.602   4.606   6.901  0.00  0.00    +0.000 Cl
ATOM     11  C   UNL     1       1.302   2.060   6.319  0.00  0.00    +0.000 A 
ATOM     12  F   UNL     1      -0.012   1.841   6.135  0.00  0.00    +0.000 F 
ENDBRANCH   2   5
BRANCH   1  13
ATOM     13  C   UNL     1       0.516   0.937   3.564  0.00  0.00    +0.000 C 
BRANCH  13  14
ATOM     14  C   UNL     1       0.994   1.009   2.068  0.00  0.00    +0.000 C 
ATOM     15  C   UNL     1       0.447   2.378   1.567  0.00  0.00    +0.000 C 
BRANCH  14  16
ATOM     16  N   UNL     1       2.505   0.995   2.087  0.00  0.00    +0.000 NA
ATOM     17  C   UNL     1       3.212   1.778   1.045  0.00  0.00    +0.000 C 
ATOM     18  C   UNL     1       3.089   1.129  -0.325  0.00  0.00    +0.000 C 
ATOM     19  O   UNL     1       3.499  -0.258  -0.334  0.00  0.00    +0.000 OA
ATOM     20  C   UNL     1       3.072  -1.075   0.777  0.00  0.00    +0.000 C 
ATOM     21  C   UNL     1       3.140  -0.342   2.113  0.00  0.00    +0.000 C 
ENDBRANCH  14  16
BRANCH  14  23
ATOM     22  C   UNL     1       0.263  -0.179  -0.192  0.00  0.00    +0.000 C 
ATOM     23  C   UNL     1       0.193  -0.124   1.330  0.00  0.00    +0.000 C 
ENDBRANCH  14  23
ENDBRANCH  13  14
ENDBRANCH   1  13
TORSDOF 5
