REMARK  Name = 
REMARK  10 active torsions:
REMARK  status: ('A' for Active; 'I' for Inactive)
REMARK    1  A    between atoms: C_1  and  C_2
REMARK    2  A    between atoms: C_2  and  C_3
REMARK    3  A    between atoms: C_3  and  C_4
REMARK    4  A    between atoms: C_9  and  N_10
REMARK    5  A    between atoms: N_10  and  C_11
REMARK    6  A    between atoms: N_10  and  S_20
REMARK    7  A    between atoms: C_11  and  C_12
REMARK    8  A    between atoms: N_14  and  C_15
REMARK    9  A    between atoms: C_15  and  C_16
REMARK   10  A    between atoms: S_20  and  C_21
REMARK                            x       y       z     vdW  Elec       q    Type
REMARK                         _______ _______ _______ _____ _____    ______ ____
ROOT
ATOM      1  N   UNL     1       2.224  -0.292  -1.701  0.00  0.00    +0.000 N 
ENDROOT
BRANCH   1   7
ATOM      2  C   UNL     1       0.523   1.439  -2.563  0.00  0.00    +0.000 A 
ATOM      3  C   UNL     1      -0.229   1.994  -3.628  0.00  0.00    +0.000 A 
ATOM      4  C   UNL     1      -0.638   1.212  -4.697  0.00  0.00    +0.000 A 
ATOM      5  C   UNL     1      -0.260  -0.116  -4.717  0.00  0.00    +0.000 A 
ATOM      6  C   UNL     1       0.560  -0.625  -3.685  0.00  0.00    +0.000 A 
ATOM      7  C   UNL     1       1.068   0.167  -2.607  0.00  0.00    +0.000 A 
BRANCH   2   8
ATOM      8  C   UNL     1       0.621   2.159  -1.284  0.00  0.00    +0.000 C 
BRANCH   8  10
ATOM      9  C   UNL     1       0.093  -0.142   0.150  0.00  0.00    +0.000 C 
ATOM     10  C   UNL     1      -0.049   1.410  -0.098  0.00  0.00    +0.000 C 
ENDBRANCH   8  10
ENDBRANCH   2   8
ENDBRANCH   1   7
BRANCH   1  11
ATOM     11  S   UNL     1       3.146   0.519  -0.200  0.00  0.00    +0.000 S 
ATOM     12  C   UNL     1       3.930   2.016  -0.762  0.00  0.00    +0.000 C 
ATOM     13  O   UNL     1       2.287   1.002   0.888  0.00  0.00    +0.000 OA
ATOM     14  O   UNL     1       4.196  -0.362   0.198  0.00  0.00    +0.000 OA
ENDBRANCH   1  11
BRANCH   1  15
ATOM     15  C   UNL     1       2.435  -1.795  -1.670  0.00  0.00    +0.000 C 
BRANCH  15  16
ATOM     16  C   UNL     1       3.909  -2.040  -1.866  0.00  0.00    +0.000 C 
ATOM     17  O   UNL     1       4.550  -2.782  -1.126  0.00  0.00    +0.000 OA
ATOM     18  N   UNL     1       4.523  -1.422  -2.932  0.00  0.00    +0.000 N 
ATOM     19  H   UNL     1       5.529  -1.522  -2.910  0.00  0.00    +0.000 HD
BRANCH  18  20
ATOM     20  C   UNL     1       3.911  -0.681  -4.051  0.00  0.00    +0.000 C 
BRANCH  20  21
ATOM     21  C   UNL     1       4.244   0.802  -4.156  0.00  0.00    +0.000 C 
ATOM     22  F   UNL     1       5.569   0.987  -4.327  0.00  0.00    +0.000 F 
ATOM     23  F   UNL     1       3.597   1.393  -5.182  0.00  0.00    +0.000 F 
ATOM     24  F   UNL     1       3.886   1.472  -3.059  0.00  0.00    +0.000 F 
ENDBRANCH  20  21
ENDBRANCH  18  20
ENDBRANCH  15  16
ENDBRANCH   1  15
TORSDOF 8
