REMARK  Name = 
REMARK  6 active torsions:
REMARK  status: ('A' for Active; 'I' for Inactive)
REMARK    1  A    between atoms: C_1  and  C_2
REMARK    2  A    between atoms: C_2  and  N_3
REMARK    3  A    between atoms: N_3  and  C_4
REMARK    4  A    between atoms: N_3  and  S_14
REMARK    5  A    between atoms: C_4  and  C_5
REMARK    6  A    between atoms: S_14  and  C_17
REMARK                            x       y       z     vdW  Elec       q    Type
REMARK                         _______ _______ _______ _____ _____    ______ ____
ROOT
ATOM      1  N   UNL     1       1.128  -1.318  -2.091  0.00  0.00    +0.000 NA
ENDROOT
BRANCH   1   2
ATOM      2  S   UNL     1       2.852  -1.379  -2.063  0.00  0.00    +0.000 S 
ATOM      3  O   UNL     1       3.346  -0.316  -2.907  0.00  0.00    +0.000 OA
ATOM      4  O   UNL     1       3.314  -1.484  -0.692  0.00  0.00    +0.000 OA
BRANCH   2   5
ATOM      5  C   UNL     1       3.267  -2.909  -2.809  0.00  0.00    +0.000 A 
ATOM      6  C   UNL     1       4.189  -2.963  -3.859  0.00  0.00    +0.000 A 
ATOM      7  C   UNL     1       4.531  -4.204  -4.396  0.00  0.00    +0.000 A 
ATOM      8  C   UNL     1       3.952  -5.370  -3.889  0.00  0.00    +0.000 A 
ATOM      9  C   UNL     1       3.035  -5.301  -2.839  0.00  0.00    +0.000 A 
ATOM     10  C   UNL     1       2.704  -4.067  -2.295  0.00  0.00    +0.000 A 
ATOM     11  F   UNL     1       1.828  -4.028  -1.283  0.00  0.00    +0.000 F 
ENDBRANCH   2   5
ENDBRANCH   1   2
BRANCH   1  13
ATOM     12  C   UNL     1       0.924  -0.001   0.089  0.00  0.00    +0.000 C 
ATOM     13  C   UNL     1       0.561  -0.141  -1.363  0.00  0.00    +0.000 C 
ENDBRANCH   1  13
BRANCH   1  14
ATOM     14  C   UNL     1       0.510  -1.453  -3.465  0.00  0.00    +0.000 C 
BRANCH  14  15
ATOM     15  C   UNL     1       0.798  -0.310  -4.416  0.00  0.00    +0.000 A 
ATOM     16  C   UNL     1       1.588  -0.486  -5.571  0.00  0.00    +0.000 A 
ATOM     17  C   UNL     1       1.922   0.613  -6.378  0.00  0.00    +0.000 A 
ATOM     18  C   UNL     1       1.517   1.869  -5.972  0.00  0.00    +0.000 A 
ATOM     19  C   UNL     1       0.770   2.043  -4.842  0.00  0.00    +0.000 A 
ATOM     20  C   UNL     1       0.334   0.979  -4.106  0.00  0.00    +0.000 A 
ATOM     21  O   UNL     1       0.501   3.339  -4.554  0.00  0.00    +0.000 OA
ATOM     22  C   UNL     1       1.168   3.982  -5.652  0.00  0.00    +0.000 C 
ATOM     23  O   UNL     1       1.745   3.053  -6.601  0.00  0.00    +0.000 OA
ENDBRANCH  14  15
ENDBRANCH   1  14
TORSDOF 5
