REMARK  Name = 
REMARK  6 active torsions:
REMARK  status: ('A' for Active; 'I' for Inactive)
REMARK    1  A    between atoms: C_1  and  C_2
REMARK    2  A    between atoms: C_2  and  C_3
REMARK    3  A    between atoms: C_3  and  C_4
REMARK    4  A    between atoms: C_7  and  C_9
REMARK    5  A    between atoms: N_21  and  C_22
REMARK    6  A    between atoms: C_22  and  C_23
REMARK                            x       y       z     vdW  Elec       q    Type
REMARK                         _______ _______ _______ _____ _____    ______ ____
ROOT
ATOM      1  C   UNL     1       0.425  -1.788  -1.765  0.00  0.00    +0.000 C 
ATOM      2  C   UNL     1       0.656  -2.560  -0.418  0.00  0.00    +0.000 C 
ATOM      3  N   UNL     1       0.946  -1.752   0.739  0.00  0.00    +0.000 N 
ATOM      4  C   UNL     1       2.306  -1.688   1.204  0.00  0.00    +0.000 C 
ATOM      5  O   UNL     1       2.692  -0.789   1.988  0.00  0.00    +0.000 OA
ATOM      6  C   UNL     1      -0.156  -0.755   1.140  0.00  0.00    +0.000 C 
ATOM      7  C   UNL     1      -0.786   0.255   0.115  0.00  0.00    +0.000 C 
ATOM      8  C   UNL     1      -1.512  -0.312  -1.118  0.00  0.00    +0.000 C 
ATOM      9  O   UNL     1      -2.552   0.249  -1.484  0.00  0.00    +0.000 OA
ATOM     10  N   UNL     1      -0.978  -1.363  -1.864  0.00  0.00    +0.000 N 
ENDROOT
BRANCH   4  11
ATOM     11  C   UNL     1       3.390  -2.633   0.715  0.00  0.00    +0.000 A 
ATOM     12  C   UNL     1       3.841  -2.734  -0.621  0.00  0.00    +0.000 A 
ATOM     13  C   UNL     1       4.820  -3.674  -0.997  0.00  0.00    +0.000 A 
ATOM     14  C   UNL     1       5.397  -4.483  -0.029  0.00  0.00    +0.000 A 
ATOM     15  F   UNL     1       6.315  -5.393  -0.383  0.00  0.00    +0.000 F 
ATOM     16  C   UNL     1       5.028  -4.354   1.302  0.00  0.00    +0.000 A 
ATOM     17  C   UNL     1       4.042  -3.427   1.663  0.00  0.00    +0.000 A 
ATOM     18  F   UNL     1       3.715  -3.336   2.958  0.00  0.00    +0.000 F 
ENDBRANCH   4  11
BRANCH   1  19
ATOM     19  C   UNL     1       1.322  -0.700  -2.524  0.00  0.00    +0.000 C 
BRANCH  19  21
ATOM     20  C   UNL     1       1.993   0.659  -0.635  0.00  0.00    +0.000 C 
ATOM     21  C   UNL     1       1.303   0.737  -1.972  0.00  0.00    +0.000 C 
ENDBRANCH  19  21
ENDBRANCH   1  19
BRANCH  10  22
ATOM     22  C   UNL     1      -1.828  -1.998  -2.888  0.00  0.00    +0.000 C 
BRANCH  22  23
ATOM     23  C   UNL     1      -1.293  -2.114  -4.308  0.00  0.00    +0.000 A 
ATOM     24  C   UNL     1      -1.967  -1.486  -5.364  0.00  0.00    +0.000 A 
ATOM     25  C   UNL     1      -1.596  -1.736  -6.691  0.00  0.00    +0.000 A 
ATOM     26  C   UNL     1      -0.470  -2.504  -6.982  0.00  0.00    +0.000 A 
ATOM     27  C   UNL     1       0.240  -3.094  -5.952  0.00  0.00    +0.000 A 
ATOM     28  C   UNL     1      -0.216  -2.955  -4.646  0.00  0.00    +0.000 A 
ENDBRANCH  22  23
ENDBRANCH  10  22
TORSDOF 5
