REMARK  Name = 
REMARK  6 active torsions:
REMARK  status: ('A' for Active; 'I' for Inactive)
REMARK    1  A    between atoms: C_1  and  C_2
REMARK    2  A    between atoms: C_2  and  C_3
REMARK    3  A    between atoms: C_3  and  C_4
REMARK    4  A    between atoms: C_6  and  C_7
REMARK    5  A    between atoms: N_9  and  C_10
REMARK    6  A    between atoms: C_10  and  C_11
REMARK                            x       y       z     vdW  Elec       q    Type
REMARK                         _______ _______ _______ _____ _____    ______ ____
ROOT
ATOM      1  C   UNL     1       0.898   4.468   2.509  0.00  0.00    +0.000 C 
ATOM      2  C   UNL     1       0.952   4.870   1.024  0.00  0.00    +0.000 C 
ATOM      3  N   UNL     1       1.246   6.312   0.831  0.00  0.00    +0.000 NA
ATOM      4  C   UNL     1       2.506   6.614   1.546  0.00  0.00    +0.000 C 
ATOM      5  C   UNL     1       2.520   6.070   2.986  0.00  0.00    +0.000 C 
ATOM      6  O   UNL     1       2.224   4.680   3.076  0.00  0.00    +0.000 OA
ENDROOT
BRANCH   1   9
ATOM      7  C   UNL     1       0.512   1.038   2.671  0.00  0.00    +0.000 A 
ATOM      8  N   UNL     1       1.254   2.054   2.385  0.00  0.00    +0.000 NA
ATOM      9  C   UNL     1       0.430   3.088   2.683  0.00  0.00    +0.000 A 
ATOM     10  N   UNL     1      -0.798   2.748   3.107  0.00  0.00    +0.000 NA
ATOM     11  O   UNL     1      -0.747   1.346   3.103  0.00  0.00    +0.000 OA
BRANCH   7  12
ATOM     12  C   UNL     1       0.874  -0.369   2.453  0.00  0.00    +0.000 C 
BRANCH  12  14
ATOM     13  C   UNL     1       0.909   0.001  -0.072  0.00  0.00    +0.000 C 
ATOM     14  C   UNL     1       0.392  -0.850   1.089  0.00  0.00    +0.000 C 
ENDBRANCH  12  14
ENDBRANCH   7  12
ENDBRANCH   1   9
BRANCH   3  15
ATOM     15  C   UNL     1       0.099   7.231   1.098  0.00  0.00    +0.000 C 
BRANCH  15  16
ATOM     16  C   UNL     1      -0.458   7.375   2.521  0.00  0.00    +0.000 A 
ATOM     17  C   UNL     1       0.279   8.014   3.536  0.00  0.00    +0.000 A 
ATOM     18  C   UNL     1       0.080   7.642   4.878  0.00  0.00    +0.000 A 
ATOM     19  C   UNL     1      -1.028   6.889   5.227  0.00  0.00    +0.000 A 
ATOM     20  F   UNL     1      -1.202   6.517   6.502  0.00  0.00    +0.000 F 
ATOM     21  C   UNL     1      -1.929   6.481   4.254  0.00  0.00    +0.000 A 
ATOM     22  C   UNL     1      -1.631   6.694   2.899  0.00  0.00    +0.000 A 
ENDBRANCH  15  16
ENDBRANCH   3  15
TORSDOF 5
