REMARK  Name = 
REMARK  6 active torsions:
REMARK  status: ('A' for Active; 'I' for Inactive)
REMARK    1  A    between atoms: C_1  and  C_2
REMARK    2  A    between atoms: C_2  and  C_3
REMARK    3  A    between atoms: C_6  and  C_7
REMARK    4  A    between atoms: N_11  and  C_12
REMARK    5  A    between atoms: C_12  and  C_13
REMARK    6  A    between atoms: C_13  and  N_14
REMARK                            x       y       z     vdW  Elec       q    Type
REMARK                         _______ _______ _______ _____ _____    ______ ____
ROOT
ATOM      1  C   UNL     1       1.060  -0.702   2.453  0.00  0.00    +0.000 A 
ATOM      2  C   UNL     1       0.972   0.656   2.841  0.00  0.00    +0.000 A 
ATOM      3  C   UNL     1       1.362   1.103   4.097  0.00  0.00    +0.000 A 
ATOM      4  C   UNL     1       1.835   0.212   5.053  0.00  0.00    +0.000 A 
ATOM      5  C   UNL     1       2.223   0.664   6.425  0.00  0.00    +0.000 C 
ATOM      6  C   UNL     1       1.912  -1.139   4.681  0.00  0.00    +0.000 A 
ATOM      7  S   UNL     1       2.459  -2.424   5.674  0.00  0.00    +0.000 S 
ATOM      8  C   UNL     1       2.111  -3.531   4.434  0.00  0.00    +0.000 A 
ATOM      9  N   UNL     1       2.276  -4.822   4.735  0.00  0.00    +0.000 N 
ATOM     10  N   UNL     1       1.681  -3.011   3.300  0.00  0.00    +0.000 NA
ATOM     11  C   UNL     1       1.540  -1.627   3.426  0.00  0.00    +0.000 A 
ATOM     12  H   UNL     1       2.811  -5.073   5.567  0.00  0.00    +0.000 HD
ENDROOT
BRANCH   1  14
ATOM     13  C   UNL     1       1.079  -0.121  -0.027  0.00  0.00    +0.000 C 
ATOM     14  C   UNL     1       0.592  -1.084   1.060  0.00  0.00    +0.000 C 
ENDBRANCH   1  14
BRANCH   9  15
ATOM     15  C   UNL     1       2.185  -5.855   3.743  0.00  0.00    +0.000 C 
BRANCH  15  16
ATOM     16  C   UNL     1       3.568  -6.465   3.516  0.00  0.00    +0.000 C 
BRANCH  16  17
ATOM     17  N   UNL     1       4.122  -7.086   4.750  0.00  0.00    +0.000 NA
ATOM     18  C   UNL     1       5.600  -6.981   4.751  0.00  0.00    +0.000 C 
ATOM     19  C   UNL     1       6.237  -7.784   3.607  0.00  0.00    +0.000 C 
ATOM     20  O   UNL     1       5.886  -9.173   3.696  0.00  0.00    +0.000 OA
ATOM     21  C   UNL     1       4.462  -9.349   3.682  0.00  0.00    +0.000 C 
ATOM     22  C   UNL     1       3.783  -8.532   4.801  0.00  0.00    +0.000 C 
ENDBRANCH  16  17
ENDBRANCH  15  16
ENDBRANCH   9  15
TORSDOF 4
