REMARK  Name = 
REMARK  6 active torsions:
REMARK  status: ('A' for Active; 'I' for Inactive)
REMARK    1  A    between atoms: C_1  and  C_2
REMARK    2  A    between atoms: C_2  and  C_3
REMARK    3  A    between atoms: N_11  and  C_12
REMARK    4  A    between atoms: C_12  and  C_13
REMARK    5  A    between atoms: N_15  and  C_16
REMARK    6  A    between atoms: C_19  and  C_20
REMARK                            x       y       z     vdW  Elec       q    Type
REMARK                         _______ _______ _______ _____ _____    ______ ____
ROOT
ATOM      1  C   UNL     1       0.647   1.018   2.277  0.00  0.00    +0.000 A 
ATOM      2  N   UNL     1       0.236   2.201   1.932  0.00  0.00    +0.000 NA
ATOM      3  C   UNL     1       0.581   3.278   2.762  0.00  0.00    +0.000 A 
ATOM      4  C   UNL     1       0.064   4.532   2.453  0.00  0.00    +0.000 A 
ATOM      5  C   UNL     1       0.563   5.675   3.078  0.00  0.00    +0.000 A 
ATOM      6  C   UNL     1       1.529   5.565   4.065  0.00  0.00    +0.000 A 
ATOM      7  C   UNL     1       1.854   4.310   4.543  0.00  0.00    +0.000 A 
ATOM      8  C   UNL     1       1.452   3.163   3.852  0.00  0.00    +0.000 A 
ATOM      9  N   UNL     1       1.913   1.882   4.235  0.00  0.00    +0.000 N 
ATOM     10  C   UNL     1       1.396   0.764   3.572  0.00  0.00    +0.000 A 
ATOM     11  O   UNL     1       1.555  -0.419   3.897  0.00  0.00    +0.000 OA
ENDROOT
BRANCH   1  13
ATOM     12  C   UNL     1       0.907  -0.050  -0.001  0.00  0.00    +0.000 C 
ATOM     13  C   UNL     1       0.337  -0.179   1.401  0.00  0.00    +0.000 C 
ENDBRANCH   1  13
BRANCH   9  14
ATOM     14  C   UNL     1       2.949   1.815   5.302  0.00  0.00    +0.000 C 
BRANCH  14  15
ATOM     15  C   UNL     1       4.280   2.596   4.965  0.00  0.00    +0.000 C 
ATOM     16  O   UNL     1       4.710   3.442   5.761  0.00  0.00    +0.000 OA
ATOM     17  N   UNL     1       5.044   2.346   3.845  0.00  0.00    +0.000 N 
ATOM     18  H   UNL     1       5.793   3.023   3.728  0.00  0.00    +0.000 HD
BRANCH  17  19
ATOM     19  C   UNL     1       4.810   1.396   2.753  0.00  0.00    +0.000 C 
ATOM     20  C   UNL     1       4.300   0.076   3.271  0.00  0.00    +0.000 C 
ATOM     21  C   UNL     1       5.188  -0.604   4.273  0.00  0.00    +0.000 C 
ATOM     22  C   UNL     1       6.401  -1.046   3.507  0.00  0.00    +0.000 C 
ATOM     23  C   UNL     1       7.349  -1.736   4.465  0.00  0.00    +0.000 C 
ATOM     24  C   UNL     1       7.039   0.174   2.808  0.00  0.00    +0.000 C 
ATOM     25  C   UNL     1       6.050   0.990   1.949  0.00  0.00    +0.000 C 
ENDBRANCH  17  19
ENDBRANCH  14  15
ENDBRANCH   9  14
TORSDOF 4
