REMARK  Name = 
REMARK  7 active torsions:
REMARK  status: ('A' for Active; 'I' for Inactive)
REMARK    1  A    between atoms: C_1  and  C_2
REMARK    2  A    between atoms: C_3  and  C_4
REMARK    3  A    between atoms: C_4  and  N_5
REMARK    4  A    between atoms: N_11  and  C_12
REMARK    5  A    between atoms: C_12  and  C_13
REMARK    6  A    between atoms: C_16  and  C_17
REMARK    7  A    between atoms: C_17  and  N_18
REMARK                            x       y       z     vdW  Elec       q    Type
REMARK                         _______ _______ _______ _____ _____    ______ ____
ROOT
ATOM      1  N   UNL     1      -1.878  -3.534  -2.238  0.00  0.00    +0.000 NA
ATOM      2  C   UNL     1      -2.266  -4.963  -2.402  0.00  0.00    +0.000 C 
ATOM      3  C   UNL     1      -1.724  -5.916  -1.296  0.00  0.00    +0.000 C 
ATOM      4  N   UNL     1      -1.988  -5.366   0.049  0.00  0.00    +0.000 N 
ATOM      5  C   UNL     1      -2.590  -6.163   0.978  0.00  0.00    +0.000 C 
ATOM      6  O   UNL     1      -2.936  -7.309   0.728  0.00  0.00    +0.000 OA
ATOM      7  N   UNL     1      -2.819  -5.739   2.238  0.00  0.00    +0.000 N 
ATOM      8  C   UNL     1      -1.548  -3.985   0.133  0.00  0.00    +0.000 C 
ATOM      9  C   UNL     1      -2.301  -3.139  -0.890  0.00  0.00    +0.000 C 
ATOM     10  H   UNL     1      -3.306  -6.459   2.755  0.00  0.00    +0.000 HD
ENDROOT
BRANCH   1  11
ATOM     11  C   UNL     1      -0.419  -3.365  -2.371  0.00  0.00    +0.000 C 
BRANCH  11  14
ATOM     12  C   UNL     1       1.029   0.036  -0.089  0.00  0.00    +0.000 C 
ATOM     13  C   UNL     1       0.523  -1.154  -0.887  0.00  0.00    +0.000 C 
ATOM     14  C   UNL     1       0.088  -2.175  -1.572  0.00  0.00    +0.000 C 
ENDBRANCH  11  14
ENDBRANCH   1  11
BRANCH   7  15
ATOM     15  C   UNL     1      -2.691  -4.478   2.922  0.00  0.00    +0.000 C 
BRANCH  15  16
ATOM     16  C   UNL     1      -3.985  -3.718   2.951  0.00  0.00    +0.000 A 
ATOM     17  C   UNL     1      -4.051  -2.363   2.604  0.00  0.00    +0.000 A 
ATOM     18  C   UNL     1      -5.254  -1.651   2.742  0.00  0.00    +0.000 A 
ATOM     19  C   UNL     1      -6.323  -2.225   3.450  0.00  0.00    +0.000 A 
ATOM     20  C   UNL     1      -6.295  -3.608   3.675  0.00  0.00    +0.000 A 
ATOM     21  C   UNL     1      -5.149  -4.349   3.395  0.00  0.00    +0.000 A 
BRANCH  19  22
ATOM     22  C   UNL     1      -7.391  -1.373   4.128  0.00  0.00    +0.000 C 
BRANCH  22  23
ATOM     23  N   UNL     1      -7.051  -0.614   5.365  0.00  0.00    +0.000 NA
ATOM     24  C   UNL     1      -6.002   0.414   5.215  0.00  0.00    +0.000 C 
ATOM     25  C   UNL     1      -4.579  -0.172   5.296  0.00  0.00    +0.000 C 
ATOM     26  O   UNL     1      -4.347  -0.953   6.473  0.00  0.00    +0.000 OA
ATOM     27  C   UNL     1      -5.308  -2.029   6.508  0.00  0.00    +0.000 C 
ATOM     28  C   UNL     1      -6.724  -1.441   6.548  0.00  0.00    +0.000 C 
ENDBRANCH  22  23
ENDBRANCH  19  22
ENDBRANCH  15  16
ENDBRANCH   7  15
TORSDOF 6
