REMARK  Name = 
REMARK  6 active torsions:
REMARK  status: ('A' for Active; 'I' for Inactive)
REMARK    1  A    between atoms: C_1  and  C_2
REMARK    2  A    between atoms: C_2  and  O_3
REMARK    3  A    between atoms: O_3  and  C_4
REMARK    4  A    between atoms: C_8  and  C_9
REMARK    5  A    between atoms: N_11  and  C_12
REMARK    6  A    between atoms: C_16  and  C_17
REMARK                            x       y       z     vdW  Elec       q    Type
REMARK                         _______ _______ _______ _____ _____    ______ ____
ROOT
ATOM      1  C   UNL     1       5.313   0.989   0.833  0.00  0.00    +0.000 C 
ATOM      2  O   UNL     1       6.555   1.061   1.008  0.00  0.00    +0.000 OA
ATOM      3  N   UNL     1       4.857   1.472  -0.396  0.00  0.00    +0.000 N 
ATOM      4  H   UNL     1       5.601   1.745  -1.026  0.00  0.00    +0.000 HD
ENDROOT
BRANCH   1   9
ATOM      5  C   UNL     1       2.295  -0.355   2.944  0.00  0.00    +0.000 A 
ATOM      6  C   UNL     1       2.902  -0.667   4.130  0.00  0.00    +0.000 A 
ATOM      7  C   UNL     1       4.293  -0.503   4.244  0.00  0.00    +0.000 A 
ATOM      8  C   UNL     1       5.083  -0.005   3.173  0.00  0.00    +0.000 A 
ATOM      9  C   UNL     1       4.484   0.388   1.969  0.00  0.00    +0.000 A 
ATOM     10  C   UNL     1       3.097   0.216   1.961  0.00  0.00    +0.000 A 
ATOM     11  F   UNL     1       2.364   0.785   1.054  0.00  0.00    +0.000 F 
BRANCH   5  12
ATOM     12  O   UNL     1       0.918  -0.375   2.860  0.00  0.00    +0.000 OA
BRANCH  12  14
ATOM     13  C   UNL     1       0.414  -0.328   0.442  0.00  0.00    +0.000 C 
ATOM     14  C   UNL     1       0.295  -1.031   1.738  0.00  0.00    +0.000 C 
ENDBRANCH  12  14
ENDBRANCH   5  12
ENDBRANCH   1   9
BRANCH   3  15
ATOM     15  C   UNL     1       3.526   1.457  -0.976  0.00  0.00    +0.000 C 
ATOM     16  C   UNL     1       3.225   0.118  -1.668  0.00  0.00    +0.000 C 
ATOM     17  C   UNL     1       1.797   0.045  -2.182  0.00  0.00    +0.000 C 
ATOM     18  C   UNL     1       1.141   1.238  -2.814  0.00  0.00    +0.000 C 
ATOM     19  C   UNL     1       1.457   2.491  -1.976  0.00  0.00    +0.000 C 
ATOM     20  C   UNL     1       0.888   3.705  -2.666  0.00  0.00    +0.000 C 
ATOM     21  C   UNL     1       2.992   2.646  -1.761  0.00  0.00    +0.000 C 
ENDBRANCH   3  15
TORSDOF 4
