REMARK  Name = 
REMARK  3 active torsions:
REMARK  status: ('A' for Active; 'I' for Inactive)
REMARK    1  A    between atoms: C_1  and  C_2
REMARK    2  A    between atoms: C_2  and  C_3
REMARK    3  A    between atoms: C_3  and  C_5
REMARK                            x       y       z     vdW  Elec       q    Type
REMARK                         _______ _______ _______ _____ _____    ______ ____
ROOT
ATOM      1  C   UNL     1       2.488   2.473  -1.238  0.00  0.00    +0.000 A 
ATOM      2  C   UNL     1       3.000   3.768  -1.406  0.00  0.00    +0.000 A 
ATOM      3  C   UNL     1       4.385   3.960  -1.562  0.00  0.00    +0.000 A 
ATOM      4  C   UNL     1       4.945   5.236  -1.663  0.00  0.00    +0.000 A 
ATOM      5  C   UNL     1       6.332   5.391  -1.614  0.00  0.00    +0.000 A 
ATOM      6  C   UNL     1       7.163   4.278  -1.717  0.00  0.00    +0.000 A 
ATOM      7 BR   UNL     1       9.028   4.499  -1.898  0.00  0.00    +0.000 Br
ATOM      8  C   UNL     1       6.626   3.001  -1.728  0.00  0.00    +0.000 A 
ATOM      9  C   UNL     1       5.250   2.840  -1.567  0.00  0.00    +0.000 A 
ATOM     10  C   UNL     1       4.717   1.569  -1.429  0.00  0.00    +0.000 A 
ATOM     11  F   UNL     1       5.518   0.493  -1.393  0.00  0.00    +0.000 F 
ATOM     12  C   UNL     1       3.353   1.389  -1.321  0.00  0.00    +0.000 A 
ATOM     13  F   UNL     1       2.914   0.131  -1.413  0.00  0.00    +0.000 F 
ENDROOT
BRANCH   1  14
ATOM     14  C   UNL     1       1.032   2.313  -1.001  0.00  0.00    +0.000 C 
ATOM     15  O   UNL     1       0.264   2.996  -1.664  0.00  0.00    +0.000 OA
BRANCH  14  17
ATOM     16  C   UNL     1       0.908  -0.005   0.102  0.00  0.00    +0.000 C 
ATOM     17  C   UNL     1       0.541   1.461   0.169  0.00  0.00    +0.000 C 
ENDBRANCH  14  17
ENDBRANCH   1  14
TORSDOF 2
