REMARK  Name = 
REMARK  8 active torsions:
REMARK  status: ('A' for Active; 'I' for Inactive)
REMARK    1  A    between atoms: C_1  and  C_2
REMARK    2  A    between atoms: C_2  and  C_3
REMARK    3  A    between atoms: C_3  and  C_4
REMARK    4  A    between atoms: C_3  and  N_5
REMARK    5  A    between atoms: C_10  and  S_11
REMARK    6  A    between atoms: S_11  and  C_12
REMARK    7  A    between atoms: C_12  and  C_13
REMARK    8  A    between atoms: N_15  and  C_16
REMARK                            x       y       z     vdW  Elec       q    Type
REMARK                         _______ _______ _______ _____ _____    ______ ____
ROOT
ATOM      1  N   UNL     1       0.281   3.495  -1.625  0.00  0.00    +0.000 N 
ATOM      2  C   UNL     1      -0.949   4.073  -1.879  0.00  0.00    +0.000 A 
ATOM      3  N   UNL     1      -2.075   3.402  -2.150  0.00  0.00    +0.000 N 
ATOM      4  N   UNL     1      -0.839   5.379  -1.834  0.00  0.00    +0.000 NA
ATOM      5  N   UNL     1       0.472   5.686  -1.595  0.00  0.00    +0.000 NA
ATOM      6  C   UNL     1       1.151   4.559  -1.522  0.00  0.00    +0.000 A 
ATOM      7  H   UNL     1      -2.902   3.945  -2.385  0.00  0.00    +0.000 HD
ATOM      8  H   UNL     1      -2.185   2.401  -2.193  0.00  0.00    +0.000 HD
ENDROOT
BRANCH   1   9
ATOM      9  C   UNL     1       0.610   2.082  -1.551  0.00  0.00    +0.000 C 
ATOM     10  C   UNL     1       0.318   1.284  -2.807  0.00  0.00    +0.000 C 
BRANCH   9  12
ATOM     11  C   UNL     1       0.666  -0.067  -0.090  0.00  0.00    +0.000 C 
ATOM     12  C   UNL     1       0.201   1.392  -0.235  0.00  0.00    +0.000 C 
ENDBRANCH   9  12
ENDBRANCH   1   9
BRANCH   6  13
ATOM     13  S   UNL     1       2.878   4.575  -1.545  0.00  0.00    +0.000 S 
BRANCH  13  14
ATOM     14  C   UNL     1       3.608   3.018  -1.001  0.00  0.00    +0.000 C 
BRANCH  14  15
ATOM     15  C   UNL     1       3.156   2.405   0.314  0.00  0.00    +0.000 C 
ATOM     16  O   UNL     1       3.163   1.172   0.437  0.00  0.00    +0.000 OA
ATOM     17  N   UNL     1       2.807   3.126   1.418  0.00  0.00    +0.000 N 
ATOM     18  H   UNL     1       2.454   2.468   2.118  0.00  0.00    +0.000 HD
BRANCH  17  19
ATOM     19  C   UNL     1       3.712   4.079   1.995  0.00  0.00    +0.000 C 
ATOM     20  C   UNL     1       4.842   4.629   1.168  0.00  0.00    +0.000 C 
ATOM     21  C   UNL     1       3.763   5.535   1.677  0.00  0.00    +0.000 C 
ENDBRANCH  17  19
ENDBRANCH  14  15
ENDBRANCH  13  14
ENDBRANCH   6  13
TORSDOF 6
