REMARK  Name = 
REMARK  7 active torsions:
REMARK  status: ('A' for Active; 'I' for Inactive)
REMARK    1  A    between atoms: C_1  and  C_2
REMARK    2  A    between atoms: C_2  and  O_3
REMARK    3  A    between atoms: O_3  and  C_4
REMARK    4  A    between atoms: C_9  and  N_10
REMARK    5  A    between atoms: N_10  and  C_11
REMARK    6  A    between atoms: C_11  and  C_12
REMARK    7  A    between atoms: C_12  and  C_14
REMARK                            x       y       z     vdW  Elec       q    Type
REMARK                         _______ _______ _______ _____ _____    ______ ____
ROOT
ATOM      1  N   UNL     1       2.966  -0.004  -1.066  0.00  0.00    +0.000 N 
ATOM      2  H   UNL     1       2.024  -0.145  -1.409  0.00  0.00    +0.000 HD
ENDROOT
BRANCH   1   8
ATOM      3  C   UNL     1       2.446   2.375  -0.906  0.00  0.00    +0.000 A 
ATOM      4  C   UNL     1       2.909   3.693  -1.069  0.00  0.00    +0.000 A 
ATOM      5  C   UNL     1       4.251   3.945  -1.407  0.00  0.00    +0.000 A 
ATOM      6  C   UNL     1       5.166   2.903  -1.467  0.00  0.00    +0.000 A 
ATOM      7  C   UNL     1       4.723   1.604  -1.283  0.00  0.00    +0.000 A 
ATOM      8  C   UNL     1       3.366   1.312  -1.103  0.00  0.00    +0.000 A 
BRANCH   3   9
ATOM      9  O   UNL     1       1.082   2.196  -0.751  0.00  0.00    +0.000 OA
BRANCH   9  11
ATOM     10  C   UNL     1       0.586  -0.007   0.392  0.00  0.00    +0.000 C 
ATOM     11  C   UNL     1       0.519   1.515   0.400  0.00  0.00    +0.000 C 
ENDBRANCH   9  11
ENDBRANCH   3   9
ENDBRANCH   1   8
BRANCH   1  12
ATOM     12  C   UNL     1       3.748  -1.165  -0.678  0.00  0.00    +0.000 C 
BRANCH  12  13
ATOM     13  C   UNL     1       3.636  -1.666   0.777  0.00  0.00    +0.000 C 
ATOM     14  O   UNL     1       3.251  -2.808   1.003  0.00  0.00    +0.000 OA
BRANCH  13  15
ATOM     15  C   UNL     1       4.091  -0.877   1.971  0.00  0.00    +0.000 A 
ATOM     16  C   UNL     1       4.744  -1.548   3.016  0.00  0.00    +0.000 A 
ATOM     17  C   UNL     1       4.919  -0.910   4.252  0.00  0.00    +0.000 A 
ATOM     18  F   UNL     1       5.448  -1.589   5.277  0.00  0.00    +0.000 F 
ATOM     19  C   UNL     1       4.506   0.400   4.466  0.00  0.00    +0.000 A 
ATOM     20  C   UNL     1       3.895   1.078   3.432  0.00  0.00    +0.000 A 
ATOM     21  C   UNL     1       3.705   0.436   2.216  0.00  0.00    +0.000 A 
ATOM     22  F   UNL     1       3.047   1.160   1.332  0.00  0.00    +0.000 F 
ENDBRANCH  13  15
ENDBRANCH  12  13
ENDBRANCH   1  12
TORSDOF 6
