MODEL 1
REMARK VINA RESULT:     0.000      0.000      0.000
REMARK INTER + INTRA:          -1.236
REMARK INTER:                   0.000
REMARK INTRA:                  -1.236
REMARK UNBOUND:                -1.236
REMARK  Name = 
REMARK  6 active torsions:
REMARK  status: ('A' for Active; 'I' for Inactive)
REMARK    1  A    between atoms: C_1  and  C_2
REMARK    2  A    between atoms: C_2  and  C_3
REMARK    3  A    between atoms: N_7  and  C_8
REMARK    4  A    between atoms: C_8  and  C_9
REMARK    5  A    between atoms: C_10  and  C_11
REMARK    6  A    between atoms: C_14  and  C_15
REMARK                            x       y       z     vdW  Elec       q    Type
REMARK                         _______ _______ _______ _____ _____    ______ ____
ROOT
ATOM      1  C   UNL     1     -47.000-301.451  63.347  0.00  0.00    +0.000 A 
ATOM      2  C   UNL     1     -45.915-300.802  64.023  0.00  0.00    +0.000 A 
ATOM      3  C   UNL     1     -45.115-301.271  65.188  0.00  0.00    +0.000 C 
ATOM      4  N   UNL     1     -45.627-299.614  63.479  0.00  0.00    +0.000 NA
ATOM      5  N   UNL     1     -46.499-299.499  62.470  0.00  0.00    +0.000 N 
ATOM      6  C   UNL     1     -47.375-300.545  62.361  0.00  0.00    +0.000 A 
ATOM      7  H   UNL     1     -46.457-298.664  61.894  0.00  0.00    +0.000 HD
ENDROOT
BRANCH   6   8
ATOM      8  C   UNL     1     -48.424-300.584  61.350  0.00  0.00    +0.000 A 
ATOM      9  C   UNL     1     -49.711-300.117  61.655  0.00  0.00    +0.000 A 
ATOM     10  C   UNL     1     -50.759-300.281  60.751  0.00  0.00    +0.000 A 
ATOM     11  C   UNL     1     -50.501-300.839  59.507  0.00  0.00    +0.000 A 
ATOM     12  F   UNL     1     -51.504-300.990  58.634  0.00  0.00    +0.000 F 
ATOM     13  C   UNL     1     -49.218-301.248  59.159  0.00  0.00    +0.000 A 
ATOM     14  C   UNL     1     -48.179-301.136  60.087  0.00  0.00    +0.000 A 
ENDBRANCH   6   8
BRANCH   1  15
ATOM     15  C   UNL     1     -47.535-302.825  63.650  0.00  0.00    +0.000 C 
BRANCH  15  20
ATOM     16  C   UNL     1     -51.813-303.956  61.839  0.00  0.00    +0.000 A 
ATOM     17  N   UNL     1     -50.711-304.211  61.170  0.00  0.00    +0.000 NA
ATOM     18  N   UNL     1     -49.582-303.842  61.870  0.00  0.00    +0.000 NA
ATOM     19  C   UNL     1     -49.848-303.340  63.053  0.00  0.00    +0.000 A 
ATOM     20  N   UNL     1     -48.939-302.974  63.988  0.00  0.00    +0.000 N 
ATOM     21  S   UNL     1     -51.545-303.226  63.368  0.00  0.00    +0.000 S 
ATOM     22  H   UNL     1     -49.248-302.506  64.823  0.00  0.00    +0.000 HD
BRANCH  16  24
ATOM     23  C   UNL     1     -53.640-303.336  60.259  0.00  0.00    +0.000 C 
ATOM     24  C   UNL     1     -53.183-304.294  61.349  0.00  0.00    +0.000 C 
ENDBRANCH  16  24
ENDBRANCH  15  20
ENDBRANCH   1  15
TORSDOF 4
ENDMDL
MODEL 2
REMARK VINA RESULT:     0.000      5.071      7.480
REMARK INTER + INTRA:          -1.236
REMARK INTER:                   0.000
REMARK INTRA:                  -1.236
REMARK UNBOUND:                -1.236
REMARK  Name = 
REMARK  6 active torsions:
REMARK  status: ('A' for Active; 'I' for Inactive)
REMARK    1  A    between atoms: C_1  and  C_2
REMARK    2  A    between atoms: C_2  and  C_3
REMARK    3  A    between atoms: N_7  and  C_8
REMARK    4  A    between atoms: C_8  and  C_9
REMARK    5  A    between atoms: C_10  and  C_11
REMARK    6  A    between atoms: C_14  and  C_15
REMARK                            x       y       z     vdW  Elec       q    Type
REMARK                         _______ _______ _______ _____ _____    ______ ____
ROOT
ATOM      1  C   UNL     1     -44.892-299.075  56.441  0.00  0.00    +0.000 A 
ATOM      2  C   UNL     1     -44.522-299.373  55.090  0.00  0.00    +0.000 A 
ATOM      3  C   UNL     1     -43.253-299.073  54.371  0.00  0.00    +0.000 C 
ATOM      4  N   UNL     1     -45.496-300.016  54.436  0.00  0.00    +0.000 NA
ATOM      5  N   UNL     1     -46.472-300.139  55.345  0.00  0.00    +0.000 N 
ATOM      6  C   UNL     1     -46.190-299.561  56.554  0.00  0.00    +0.000 A 
ATOM      7  H   UNL     1     -47.323-300.619  55.072  0.00  0.00    +0.000 HD
ENDROOT
BRANCH   6   8
ATOM      8  C   UNL     1     -47.141-299.556  57.658  0.00  0.00    +0.000 A 
ATOM      9  C   UNL     1     -48.001-298.462  57.837  0.00  0.00    +0.000 A 
ATOM     10  C   UNL     1     -48.813-298.375  58.967  0.00  0.00    +0.000 A 
ATOM     11  C   UNL     1     -48.823-299.422  59.878  0.00  0.00    +0.000 A 
ATOM     12  F   UNL     1     -49.607-299.344  60.960  0.00  0.00    +0.000 F 
ATOM     13  C   UNL     1     -48.027-300.546  59.684  0.00  0.00    +0.000 A 
ATOM     14  C   UNL     1     -47.171-300.608  58.581  0.00  0.00    +0.000 A 
ENDBRANCH   6   8
BRANCH   1  15
ATOM     15  C   UNL     1     -44.012-298.424  57.476  0.00  0.00    +0.000 C 
BRANCH  15  20
ATOM     16  C   UNL     1     -46.145-296.701  61.393  0.00  0.00    +0.000 A 
ATOM     17  N   UNL     1     -45.696-297.935  61.360  0.00  0.00    +0.000 NA
ATOM     18  N   UNL     1     -45.087-298.234  60.160  0.00  0.00    +0.000 NA
ATOM     19  C   UNL     1     -45.067-297.223  59.323  0.00  0.00    +0.000 A 
ATOM     20  N   UNL     1     -44.463-297.200  58.113  0.00  0.00    +0.000 N 
ATOM     21  S   UNL     1     -45.870-295.823  59.945  0.00  0.00    +0.000 S 
ATOM     22  H   UNL     1     -44.594-296.406  57.508  0.00  0.00    +0.000 HD
BRANCH  16  24
ATOM     23  C   UNL     1     -48.229-296.593  62.757  0.00  0.00    +0.000 C 
ATOM     24  C   UNL     1     -46.806-296.085  62.582  0.00  0.00    +0.000 C 
ENDBRANCH  16  24
ENDBRANCH  15  20
ENDBRANCH   1  15
TORSDOF 4
ENDMDL
MODEL 3
REMARK VINA RESULT:     0.000     11.310     13.281
REMARK INTER + INTRA:          -1.236
REMARK INTER:                   0.000
REMARK INTRA:                  -1.236
REMARK UNBOUND:                -1.236
REMARK  Name = 
REMARK  6 active torsions:
REMARK  status: ('A' for Active; 'I' for Inactive)
REMARK    1  A    between atoms: C_1  and  C_2
REMARK    2  A    between atoms: C_2  and  C_3
REMARK    3  A    between atoms: N_7  and  C_8
REMARK    4  A    between atoms: C_8  and  C_9
REMARK    5  A    between atoms: C_10  and  C_11
REMARK    6  A    between atoms: C_14  and  C_15
REMARK                            x       y       z     vdW  Elec       q    Type
REMARK                         _______ _______ _______ _____ _____    ______ ____
ROOT
ATOM      1  C   UNL     1     -37.737-294.638  59.917  0.00  0.00    +0.000 A 
ATOM      2  C   UNL     1     -37.397-293.385  60.522  0.00  0.00    +0.000 A 
ATOM      3  C   UNL     1     -38.070-292.663  61.636  0.00  0.00    +0.000 C 
ATOM      4  N   UNL     1     -36.309-292.842  59.966  0.00  0.00    +0.000 NA
ATOM      5  N   UNL     1     -35.947-293.725  59.027  0.00  0.00    +0.000 N 
ATOM      6  C   UNL     1     -36.784-294.803  58.918  0.00  0.00    +0.000 A 
ATOM      7  H   UNL     1     -35.119-293.525  58.475  0.00  0.00    +0.000 HD
ENDROOT
BRANCH   6   8
ATOM      8  C   UNL     1     -36.579-295.853  57.928  0.00  0.00    +0.000 A 
ATOM      9  C   UNL     1     -37.231-295.784  56.688  0.00  0.00    +0.000 A 
ATOM     10  C   UNL     1     -37.163-296.848  55.790  0.00  0.00    +0.000 A 
ATOM     11  C   UNL     1     -36.375-297.947  56.099  0.00  0.00    +0.000 A 
ATOM     12  F   UNL     1     -36.302-298.966  55.234  0.00  0.00    +0.000 F 
ATOM     13  C   UNL     1     -35.667-298.006  57.294  0.00  0.00    +0.000 A 
ATOM     14  C   UNL     1     -35.781-296.966  58.220  0.00  0.00    +0.000 A 
ENDBRANCH   6   8
BRANCH   1  15
ATOM     15  C   UNL     1     -38.857-295.551  60.341  0.00  0.00    +0.000 C 
BRANCH  15  20
ATOM     16  C   UNL     1     -40.173-298.976  57.277  0.00  0.00    +0.000 A 
ATOM     17  N   UNL     1     -39.249-299.203  58.182  0.00  0.00    +0.000 NA
ATOM     18  N   UNL     1     -39.033-298.107  58.989  0.00  0.00    +0.000 NA
ATOM     19  C   UNL     1     -39.805-297.088  58.696  0.00  0.00    +0.000 A 
ATOM     20  N   UNL     1     -39.873-295.917  59.371  0.00  0.00    +0.000 N 
ATOM     21  S   UNL     1     -40.830-297.393  57.336  0.00  0.00    +0.000 S 
ATOM     22  H   UNL     1     -40.427-295.162  59.001  0.00  0.00    +0.000 HD
BRANCH  16  24
ATOM     23  C   UNL     1     -39.636-300.225  55.186  0.00  0.00    +0.000 C 
ATOM     24  C   UNL     1     -40.650-299.998  56.296  0.00  0.00    +0.000 C 
ENDBRANCH  16  24
ENDBRANCH  15  20
ENDBRANCH   1  15
TORSDOF 4
ENDMDL
MODEL 4
REMARK VINA RESULT:     0.000      6.489      9.403
REMARK INTER + INTRA:          -1.236
REMARK INTER:                   0.000
REMARK INTRA:                  -1.236
REMARK UNBOUND:                -1.236
REMARK  Name = 
REMARK  6 active torsions:
REMARK  status: ('A' for Active; 'I' for Inactive)
REMARK    1  A    between atoms: C_1  and  C_2
REMARK    2  A    between atoms: C_2  and  C_3
REMARK    3  A    between atoms: N_7  and  C_8
REMARK    4  A    between atoms: C_8  and  C_9
REMARK    5  A    between atoms: C_10  and  C_11
REMARK    6  A    between atoms: C_14  and  C_15
REMARK                            x       y       z     vdW  Elec       q    Type
REMARK                         _______ _______ _______ _____ _____    ______ ____
ROOT
ATOM      1  C   UNL     1     -39.748-298.090  63.034  0.00  0.00    +0.000 A 
ATOM      2  C   UNL     1     -38.772-297.124  62.624  0.00  0.00    +0.000 A 
ATOM      3  C   UNL     1     -38.973-295.757  62.069  0.00  0.00    +0.000 C 
ATOM      4  N   UNL     1     -37.523-297.573  62.795  0.00  0.00    +0.000 NA
ATOM      5  N   UNL     1     -37.685-298.798  63.310  0.00  0.00    +0.000 N 
ATOM      6  C   UNL     1     -38.992-299.184  63.440  0.00  0.00    +0.000 A 
ATOM      7  H   UNL     1     -36.855-299.335  63.539  0.00  0.00    +0.000 HD
ENDROOT
BRANCH   6   8
ATOM      8  C   UNL     1     -39.372-300.498  63.945  0.00  0.00    +0.000 A 
ATOM      9  C   UNL     1     -39.614-301.550  63.050  0.00  0.00    +0.000 A 
ATOM     10  C   UNL     1     -40.117-302.768  63.505  0.00  0.00    +0.000 A 
ATOM     11  C   UNL     1     -40.301-302.959  64.867  0.00  0.00    +0.000 A 
ATOM     12  F   UNL     1     -40.778-304.130  65.307  0.00  0.00    +0.000 F 
ATOM     13  C   UNL     1     -40.004-301.951  65.778  0.00  0.00    +0.000 A 
ATOM     14  C   UNL     1     -39.554-300.711  65.317  0.00  0.00    +0.000 A 
ENDBRANCH   6   8
BRANCH   1  15
ATOM     15  C   UNL     1     -41.240-297.889  63.045  0.00  0.00    +0.000 C 
BRANCH  15  20
ATOM     16  C   UNL     1     -43.971-301.794  63.437  0.00  0.00    +0.000 A 
ATOM     17  N   UNL     1     -43.578-301.139  64.505  0.00  0.00    +0.000 NA
ATOM     18  N   UNL     1     -42.829-300.027  64.186  0.00  0.00    +0.000 NA
ATOM     19  C   UNL     1     -42.688-299.852  62.893  0.00  0.00    +0.000 A 
ATOM     20  N   UNL     1     -42.078-298.804  62.291  0.00  0.00    +0.000 N 
ATOM     21  S   UNL     1     -43.431-301.105  61.962  0.00  0.00    +0.000 S 
ATOM     22  H   UNL     1     -41.937-298.818  61.294  0.00  0.00    +0.000 HD
BRANCH  16  24
ATOM     23  C   UNL     1     -44.060-304.238  63.926  0.00  0.00    +0.000 C 
ATOM     24  C   UNL     1     -44.837-303.010  63.476  0.00  0.00    +0.000 C 
ENDBRANCH  16  24
ENDBRANCH  15  20
ENDBRANCH   1  15
TORSDOF 4
ENDMDL
MODEL 5
REMARK VINA RESULT:     0.000      3.424      5.544
REMARK INTER + INTRA:          -1.236
REMARK INTER:                   0.000
REMARK INTRA:                  -1.236
REMARK UNBOUND:                -1.236
REMARK  Name = 
REMARK  6 active torsions:
REMARK  status: ('A' for Active; 'I' for Inactive)
REMARK    1  A    between atoms: C_1  and  C_2
REMARK    2  A    between atoms: C_2  and  C_3
REMARK    3  A    between atoms: N_7  and  C_8
REMARK    4  A    between atoms: C_8  and  C_9
REMARK    5  A    between atoms: C_10  and  C_11
REMARK    6  A    between atoms: C_14  and  C_15
REMARK                            x       y       z     vdW  Elec       q    Type
REMARK                         _______ _______ _______ _____ _____    ______ ____
ROOT
ATOM      1  C   UNL     1     -49.169-304.648  64.702  0.00  0.00    +0.000 A 
ATOM      2  C   UNL     1     -50.065-305.066  65.738  0.00  0.00    +0.000 A 
ATOM      3  C   UNL     1     -49.795-305.291  67.185  0.00  0.00    +0.000 C 
ATOM      4  N   UNL     1     -51.306-305.259  65.277  0.00  0.00    +0.000 NA
ATOM      5  N   UNL     1     -51.218-304.966  63.973  0.00  0.00    +0.000 N 
ATOM      6  C   UNL     1     -49.957-304.632  63.557  0.00  0.00    +0.000 A 
ATOM      7  H   UNL     1     -52.060-305.029  63.410  0.00  0.00    +0.000 HD
ENDROOT
BRANCH   6   8
ATOM      8  C   UNL     1     -49.651-304.319  62.166  0.00  0.00    +0.000 A 
ATOM      9  C   UNL     1     -49.190-305.325  61.306  0.00  0.00    +0.000 A 
ATOM     10  C   UNL     1     -48.755-305.015  60.018  0.00  0.00    +0.000 A 
ATOM     11  C   UNL     1     -48.860-303.708  59.564  0.00  0.00    +0.000 A 
ATOM     12  F   UNL     1     -48.451-303.408  58.325  0.00  0.00    +0.000 F 
ATOM     13  C   UNL     1     -49.378-302.706  60.379  0.00  0.00    +0.000 A 
ATOM     14  C   UNL     1     -49.759-303.007  61.689  0.00  0.00    +0.000 A 
ENDBRANCH   6   8
BRANCH   1  15
ATOM     15  C   UNL     1     -47.721-304.277  64.882  0.00  0.00    +0.000 C 
BRANCH  15  20
ATOM     16  C   UNL     1     -45.009-304.063  60.949  0.00  0.00    +0.000 A 
ATOM     17  N   UNL     1     -45.643-303.000  61.387  0.00  0.00    +0.000 NA
ATOM     18  N   UNL     1     -46.343-303.253  62.547  0.00  0.00    +0.000 NA
ATOM     19  C   UNL     1     -46.210-304.487  62.973  0.00  0.00    +0.000 A 
ATOM     20  N   UNL     1     -46.711-304.993  64.124  0.00  0.00    +0.000 N 
ATOM     21  S   UNL     1     -45.244-305.460  61.919  0.00  0.00    +0.000 S 
ATOM     22  H   UNL     1     -46.635-305.980  64.306  0.00  0.00    +0.000 HD
BRANCH  16  24
ATOM     23  C   UNL     1     -44.947-304.045  58.457  0.00  0.00    +0.000 C 
ATOM     24  C   UNL     1     -44.132-304.074  59.741  0.00  0.00    +0.000 C 
ENDBRANCH  16  24
ENDBRANCH  15  20
ENDBRANCH   1  15
TORSDOF 4
ENDMDL
MODEL 6
REMARK VINA RESULT:     0.000      3.976      5.315
REMARK INTER + INTRA:          -1.236
REMARK INTER:                   0.000
REMARK INTRA:                  -1.236
REMARK UNBOUND:                -1.236
REMARK  Name = 
REMARK  6 active torsions:
REMARK  status: ('A' for Active; 'I' for Inactive)
REMARK    1  A    between atoms: C_1  and  C_2
REMARK    2  A    between atoms: C_2  and  C_3
REMARK    3  A    between atoms: N_7  and  C_8
REMARK    4  A    between atoms: C_8  and  C_9
REMARK    5  A    between atoms: C_10  and  C_11
REMARK    6  A    between atoms: C_14  and  C_15
REMARK                            x       y       z     vdW  Elec       q    Type
REMARK                         _______ _______ _______ _____ _____    ______ ____
ROOT
ATOM      1  C   UNL     1     -45.056-302.107  62.400  0.00  0.00    +0.000 A 
ATOM      2  C   UNL     1     -43.908-301.272  62.209  0.00  0.00    +0.000 A 
ATOM      3  C   UNL     1     -43.566-300.386  61.063  0.00  0.00    +0.000 C 
ATOM      4  N   UNL     1     -43.063-301.342  63.244  0.00  0.00    +0.000 NA
ATOM      5  N   UNL     1     -43.654-302.194  64.090  0.00  0.00    +0.000 N 
ATOM      6  C   UNL     1     -44.831-302.720  63.627  0.00  0.00    +0.000 A 
ATOM      7  H   UNL     1     -43.191-302.392  64.971  0.00  0.00    +0.000 HD
ENDROOT
BRANCH   6   8
ATOM      8  C   UNL     1     -45.602-303.695  64.387  0.00  0.00    +0.000 A 
ATOM      9  C   UNL     1     -45.415-305.067  64.161  0.00  0.00    +0.000 A 
ATOM     10  C   UNL     1     -46.245-306.007  64.771  0.00  0.00    +0.000 A 
ATOM     11  C   UNL     1     -47.209-305.577  65.671  0.00  0.00    +0.000 A 
ATOM     12  F   UNL     1     -48.002-306.478  66.264  0.00  0.00    +0.000 F 
ATOM     13  C   UNL     1     -47.367-304.226  65.961  0.00  0.00    +0.000 A 
ATOM     14  C   UNL     1     -46.574-303.280  65.306  0.00  0.00    +0.000 A 
ENDBRANCH   6   8
BRANCH   1  15
ATOM     15  C   UNL     1     -46.235-302.216  61.469  0.00  0.00    +0.000 C 
BRANCH  15  20
ATOM     16  C   UNL     1     -49.173-305.938  62.082  0.00  0.00    +0.000 A 
ATOM     17  N   UNL     1     -49.391-304.801  62.701  0.00  0.00    +0.000 NA
ATOM     18  N   UNL     1     -48.457-303.842  62.372  0.00  0.00    +0.000 NA
ATOM     19  C   UNL     1     -47.569-304.263  61.501  0.00  0.00    +0.000 A 
ATOM     20  N   UNL     1     -46.591-303.518  60.935  0.00  0.00    +0.000 N 
ATOM     21  S   UNL     1     -47.791-305.922  61.066  0.00  0.00    +0.000 S 
ATOM     22  H   UNL     1     -45.901-303.965  60.355  0.00  0.00    +0.000 HD
BRANCH  16  24
ATOM     23  C   UNL     1     -49.851-307.843  63.541  0.00  0.00    +0.000 C 
ATOM     24  C   UNL     1     -50.052-307.139  62.208  0.00  0.00    +0.000 C 
ENDBRANCH  16  24
ENDBRANCH  15  20
ENDBRANCH   1  15
TORSDOF 4
ENDMDL
MODEL 7
REMARK VINA RESULT:     0.000      2.473      3.012
REMARK INTER + INTRA:          -1.236
REMARK INTER:                   0.000
REMARK INTRA:                  -1.236
REMARK UNBOUND:                -1.236
REMARK  Name = 
REMARK  6 active torsions:
REMARK  status: ('A' for Active; 'I' for Inactive)
REMARK    1  A    between atoms: C_1  and  C_2
REMARK    2  A    between atoms: C_2  and  C_3
REMARK    3  A    between atoms: N_7  and  C_8
REMARK    4  A    between atoms: C_8  and  C_9
REMARK    5  A    between atoms: C_10  and  C_11
REMARK    6  A    between atoms: C_14  and  C_15
REMARK                            x       y       z     vdW  Elec       q    Type
REMARK                         _______ _______ _______ _____ _____    ______ ____
ROOT
ATOM      1  C   UNL     1     -44.860-300.355  62.698  0.00  0.00    +0.000 A 
ATOM      2  C   UNL     1     -43.767-300.014  63.559  0.00  0.00    +0.000 A 
ATOM      3  C   UNL     1     -43.106-300.831  64.612  0.00  0.00    +0.000 C 
ATOM      4  N   UNL     1     -43.320-298.773  63.330  0.00  0.00    +0.000 NA
ATOM      5  N   UNL     1     -44.100-298.324  62.339  0.00  0.00    +0.000 N 
ATOM      6  C   UNL     1     -45.068-299.207  61.942  0.00  0.00    +0.000 A 
ATOM      7  H   UNL     1     -43.931-297.389  61.983  0.00  0.00    +0.000 HD
ENDROOT
BRANCH   6   8
ATOM      8  C   UNL     1     -46.039-298.885  60.903  0.00  0.00    +0.000 A 
ATOM      9  C   UNL     1     -47.290-298.356  61.252  0.00  0.00    +0.000 A 
ATOM     10  C   UNL     1     -48.281-298.181  60.288  0.00  0.00    +0.000 A 
ATOM     11  C   UNL     1     -47.992-298.459  58.959  0.00  0.00    +0.000 A 
ATOM     12  F   UNL     1     -48.939-298.284  58.030  0.00  0.00    +0.000 F 
ATOM     13  C   UNL     1     -46.735-298.921  58.583  0.00  0.00    +0.000 A 
ATOM     14  C   UNL     1     -45.761-299.152  59.557  0.00  0.00    +0.000 A 
ENDBRANCH   6   8
BRANCH   1  15
ATOM     15  C   UNL     1     -45.554-301.690  62.636  0.00  0.00    +0.000 C 
BRANCH  15  20
ATOM     16  C   UNL     1     -49.779-301.862  60.406  0.00  0.00    +0.000 A 
ATOM     17  N   UNL     1     -48.663-302.080  59.749  0.00  0.00    +0.000 NA
ATOM     18  N   UNL     1     -47.557-302.018  60.569  0.00  0.00    +0.000 NA
ATOM     19  C   UNL     1     -47.856-301.778  61.824  0.00  0.00    +0.000 A 
ATOM     20  N   UNL     1     -46.987-301.749  62.861  0.00  0.00    +0.000 N 
ATOM     21  S   UNL     1     -49.552-301.544  62.076  0.00  0.00    +0.000 S 
ATOM     22  H   UNL     1     -47.307-301.456  63.769  0.00  0.00    +0.000 HD
BRANCH  16  24
ATOM     23  C   UNL     1     -51.413-300.682  58.937  0.00  0.00    +0.000 C 
ATOM     24  C   UNL     1     -51.137-301.914  59.785  0.00  0.00    +0.000 C 
ENDBRANCH  16  24
ENDBRANCH  15  20
ENDBRANCH   1  15
TORSDOF 4
ENDMDL
MODEL 8
REMARK VINA RESULT:     0.000      8.043      9.000
REMARK INTER + INTRA:          -1.236
REMARK INTER:                   0.000
REMARK INTRA:                  -1.236
REMARK UNBOUND:                -1.236
REMARK  Name = 
REMARK  6 active torsions:
REMARK  status: ('A' for Active; 'I' for Inactive)
REMARK    1  A    between atoms: C_1  and  C_2
REMARK    2  A    between atoms: C_2  and  C_3
REMARK    3  A    between atoms: N_7  and  C_8
REMARK    4  A    between atoms: C_8  and  C_9
REMARK    5  A    between atoms: C_10  and  C_11
REMARK    6  A    between atoms: C_14  and  C_15
REMARK                            x       y       z     vdW  Elec       q    Type
REMARK                         _______ _______ _______ _____ _____    ______ ____
ROOT
ATOM      1  C   UNL     1     -43.290-298.972  57.296  0.00  0.00    +0.000 A 
ATOM      2  C   UNL     1     -42.085-299.676  57.621  0.00  0.00    +0.000 A 
ATOM      3  C   UNL     1     -41.294-299.660  58.882  0.00  0.00    +0.000 C 
ATOM      4  N   UNL     1     -41.665-300.441  56.607  0.00  0.00    +0.000 NA
ATOM      5  N   UNL     1     -42.581-300.245  55.650  0.00  0.00    +0.000 N 
ATOM      6  C   UNL     1     -43.558-299.346  55.984  0.00  0.00    +0.000 A 
ATOM      7  H   UNL     1     -42.474-300.746  54.774  0.00  0.00    +0.000 HD
ENDROOT
BRANCH   6   8
ATOM      8  C   UNL     1     -44.622-298.970  55.060  0.00  0.00    +0.000 A 
ATOM      9  C   UNL     1     -44.476-297.836  54.247  0.00  0.00    +0.000 A 
ATOM     10  C   UNL     1     -45.538-297.380  53.468  0.00  0.00    +0.000 A 
ATOM     11  C   UNL     1     -46.720-298.107  53.440  0.00  0.00    +0.000 A 
ATOM     12  F   UNL     1     -47.739-297.675  52.687  0.00  0.00    +0.000 F 
ATOM     13  C   UNL     1     -46.862-299.271  54.188  0.00  0.00    +0.000 A 
ATOM     14  C   UNL     1     -45.818-299.696  55.014  0.00  0.00    +0.000 A 
ENDBRANCH   6   8
BRANCH   1  15
ATOM     15  C   UNL     1     -44.072-298.082  58.225  0.00  0.00    +0.000 C 
BRANCH  15  20
ATOM     16  C   UNL     1     -47.320-295.177  56.257  0.00  0.00    +0.000 A 
ATOM     17  N   UNL     1     -47.651-296.383  56.657  0.00  0.00    +0.000 NA
ATOM     18  N   UNL     1     -46.589-297.053  57.224  0.00  0.00    +0.000 NA
ATOM     19  C   UNL     1     -45.488-296.339  57.263  0.00  0.00    +0.000 A 
ATOM     20  N   UNL     1     -44.319-296.705  57.838  0.00  0.00    +0.000 N 
ATOM     21  S   UNL     1     -45.672-294.783  56.529  0.00  0.00    +0.000 S 
ATOM     22  H   UNL     1     -43.506-296.123  57.722  0.00  0.00    +0.000 HD
BRANCH  16  24
ATOM     23  C   UNL     1     -48.616-294.576  54.213  0.00  0.00    +0.000 C 
ATOM     24  C   UNL     1     -48.278-294.206  55.649  0.00  0.00    +0.000 C 
ENDBRANCH  16  24
ENDBRANCH  15  20
ENDBRANCH   1  15
TORSDOF 4
ENDMDL
MODEL 9
REMARK VINA RESULT:     0.000      6.712      8.439
REMARK INTER + INTRA:          -1.236
REMARK INTER:                   0.000
REMARK INTRA:                  -1.236
REMARK UNBOUND:                -1.236
REMARK  Name = 
REMARK  6 active torsions:
REMARK  status: ('A' for Active; 'I' for Inactive)
REMARK    1  A    between atoms: C_1  and  C_2
REMARK    2  A    between atoms: C_2  and  C_3
REMARK    3  A    between atoms: N_7  and  C_8
REMARK    4  A    between atoms: C_8  and  C_9
REMARK    5  A    between atoms: C_10  and  C_11
REMARK    6  A    between atoms: C_14  and  C_15
REMARK                            x       y       z     vdW  Elec       q    Type
REMARK                         _______ _______ _______ _____ _____    ______ ____
ROOT
ATOM      1  C   UNL     1     -43.780-298.947  62.797  0.00  0.00    +0.000 A 
ATOM      2  C   UNL     1     -43.627-299.151  61.387  0.00  0.00    +0.000 A 
ATOM      3  C   UNL     1     -43.819-298.187  60.269  0.00  0.00    +0.000 C 
ATOM      4  N   UNL     1     -43.253-300.403  61.102  0.00  0.00    +0.000 NA
ATOM      5  N   UNL     1     -43.158-300.995  62.299  0.00  0.00    +0.000 N 
ATOM      6  C   UNL     1     -43.500-300.190  63.353  0.00  0.00    +0.000 A 
ATOM      7  H   UNL     1     -42.868-301.967  62.331  0.00  0.00    +0.000 HD
ENDROOT
BRANCH   6   8
ATOM      8  C   UNL     1     -43.497-300.664  64.731  0.00  0.00    +0.000 A 
ATOM      9  C   UNL     1     -44.677-301.162  65.303  0.00  0.00    +0.000 A 
ATOM     10  C   UNL     1     -44.729-301.482  66.659  0.00  0.00    +0.000 A 
ATOM     11  C   UNL     1     -43.576-301.382  67.424  0.00  0.00    +0.000 A 
ATOM     12  F   UNL     1     -43.621-301.696  68.724  0.00  0.00    +0.000 F 
ATOM     13  C   UNL     1     -42.378-300.954  66.860  0.00  0.00    +0.000 A 
ATOM     14  C   UNL     1     -42.341-300.578  65.515  0.00  0.00    +0.000 A 
ENDBRANCH   6   8
BRANCH   1  15
ATOM     15  C   UNL     1     -44.122-297.644  63.470  0.00  0.00    +0.000 C 
BRANCH  15  20
ATOM     16  C   UNL     1     -45.578-297.845  68.020  0.00  0.00    +0.000 A 
ATOM     17  N   UNL     1     -44.306-297.700  67.727  0.00  0.00    +0.000 NA
ATOM     18  N   UNL     1     -44.090-297.632  66.367  0.00  0.00    +0.000 NA
ATOM     19  C   UNL     1     -45.196-297.703  65.664  0.00  0.00    +0.000 A 
ATOM     20  N   UNL     1     -45.297-297.577  64.320  0.00  0.00    +0.000 N 
ATOM     21  S   UNL     1     -46.602-297.928  66.646  0.00  0.00    +0.000 S 
ATOM     22  H   UNL     1     -46.181-297.750  63.871  0.00  0.00    +0.000 HD
BRANCH  16  24
ATOM     23  C   UNL     1     -45.821-299.238  70.073  0.00  0.00    +0.000 C 
ATOM     24  C   UNL     1     -46.113-297.899  69.413  0.00  0.00    +0.000 C 
ENDBRANCH  16  24
ENDBRANCH  15  20
ENDBRANCH   1  15
TORSDOF 4
ENDMDL
MODEL 10
REMARK VINA RESULT:     0.000     10.403     12.424
REMARK INTER + INTRA:          -1.236
REMARK INTER:                   0.000
REMARK INTRA:                  -1.236
REMARK UNBOUND:                -1.236
REMARK  Name = 
REMARK  6 active torsions:
REMARK  status: ('A' for Active; 'I' for Inactive)
REMARK    1  A    between atoms: C_1  and  C_2
REMARK    2  A    between atoms: C_2  and  C_3
REMARK    3  A    between atoms: N_7  and  C_8
REMARK    4  A    between atoms: C_8  and  C_9
REMARK    5  A    between atoms: C_10  and  C_11
REMARK    6  A    between atoms: C_14  and  C_15
REMARK                            x       y       z     vdW  Elec       q    Type
REMARK                         _______ _______ _______ _____ _____    ______ ____
ROOT
ATOM      1  C   UNL     1     -39.367-303.530  59.897  0.00  0.00    +0.000 A 
ATOM      2  C   UNL     1     -39.624-304.936  59.795  0.00  0.00    +0.000 A 
ATOM      3  C   UNL     1     -40.368-305.828  60.726  0.00  0.00    +0.000 C 
ATOM      4  N   UNL     1     -39.099-305.460  58.682  0.00  0.00    +0.000 NA
ATOM      5  N   UNL     1     -38.521-304.418  58.072  0.00  0.00    +0.000 N 
ATOM      6  C   UNL     1     -38.610-303.241  58.767  0.00  0.00    +0.000 A 
ATOM      7  H   UNL     1     -38.062-304.578  57.182  0.00  0.00    +0.000 HD
ENDROOT
BRANCH   6   8
ATOM      8  C   UNL     1     -38.010-302.003  58.285  0.00  0.00    +0.000 A 
ATOM      9  C   UNL     1     -36.722-301.639  58.705  0.00  0.00    +0.000 A 
ATOM     10  C   UNL     1     -36.193-300.393  58.372  0.00  0.00    +0.000 A 
ATOM     11  C   UNL     1     -36.920-299.544  57.550  0.00  0.00    +0.000 A 
ATOM     12  F   UNL     1     -36.411-298.351  57.223  0.00  0.00    +0.000 F 
ATOM     13  C   UNL     1     -38.171-299.914  57.068  0.00  0.00    +0.000 A 
ATOM     14  C   UNL     1     -38.727-301.139  57.449  0.00  0.00    +0.000 A 
ENDBRANCH   6   8
BRANCH   1  15
ATOM     15  C   UNL     1     -39.871-302.615  60.981  0.00  0.00    +0.000 C 
BRANCH  15  20
ATOM     16  C   UNL     1     -37.780-298.334  61.381  0.00  0.00    +0.000 A 
ATOM     17  N   UNL     1     -38.837-298.497  60.619  0.00  0.00    +0.000 NA
ATOM     18  N   UNL     1     -39.312-299.790  60.659  0.00  0.00    +0.000 NA
ATOM     19  C   UNL     1     -38.624-300.569  61.461  0.00  0.00    +0.000 A 
ATOM     20  N   UNL     1     -38.912-301.857  61.764  0.00  0.00    +0.000 N 
ATOM     21  S   UNL     1     -37.278-299.762  62.188  0.00  0.00    +0.000 S 
ATOM     22  H   UNL     1     -38.261-302.394  62.312  0.00  0.00    +0.000 HD
BRANCH  16  24
ATOM     23  C   UNL     1     -36.246-296.657  60.354  0.00  0.00    +0.000 C 
ATOM     24  C   UNL     1     -37.081-297.027  61.570  0.00  0.00    +0.000 C 
ENDBRANCH  16  24
ENDBRANCH  15  20
ENDBRANCH   1  15
TORSDOF 4
ENDMDL
