MODEL 1
REMARK VINA RESULT:     0.000      0.000      0.000
REMARK INTER + INTRA:          -0.752
REMARK INTER:                   0.000
REMARK INTRA:                  -0.752
REMARK UNBOUND:                -0.752
REMARK  Name = 
REMARK  5 active torsions:
REMARK  status: ('A' for Active; 'I' for Inactive)
REMARK    1  A    between atoms: C_1  and  C_2
REMARK    2  A    between atoms: C_2  and  N_3
REMARK    3  A    between atoms: N_6  and  C_7
REMARK    4  A    between atoms: C_7  and  C_8
REMARK    5  A    between atoms: N_10  and  C_11
REMARK                            x       y       z     vdW  Elec       q    Type
REMARK                         _______ _______ _______ _____ _____    ______ ____
ROOT
ATOM      1  N   UNL     1     -42.724-301.419  61.551  0.00  0.00    +0.000 N 
ATOM      2  C   UNL     1     -43.257-300.644  60.506  0.00  0.00    +0.000 A 
ATOM      3  O   UNL     1     -43.418-299.427  60.613  0.00  0.00    +0.000 OA
ATOM      4  N   UNL     1     -43.470-301.275  59.286  0.00  0.00    +0.000 N 
ATOM      5  C   UNL     1     -43.166-302.597  59.013  0.00  0.00    +0.000 A 
ATOM      6  O   UNL     1     -43.288-303.114  57.896  0.00  0.00    +0.000 OA
ATOM      7  C   UNL     1     -42.534-303.370  60.089  0.00  0.00    +0.000 A 
ATOM      8  C   UNL     1     -42.015-304.637  59.783  0.00  0.00    +0.000 A 
ATOM      9  C   UNL     1     -41.189-305.281  60.693  0.00  0.00    +0.000 A 
ATOM     10  C   UNL     1     -41.068-304.765  61.976  0.00  0.00    +0.000 A 
ATOM     11  C   UNL     1     -41.658-303.540  62.303  0.00  0.00    +0.000 A 
ATOM     12  C   UNL     1     -42.324-302.776  61.336  0.00  0.00    +0.000 A 
ENDROOT
BRANCH   1  14
ATOM     13  C   UNL     1     -43.376-300.711  63.836  0.00  0.00    +0.000 C 
ATOM     14  C   UNL     1     -42.306-300.700  62.768  0.00  0.00    +0.000 C 
ENDBRANCH   1  14
BRANCH   4  15
ATOM     15  C   UNL     1     -43.860-300.450  58.146  0.00  0.00    +0.000 C 
BRANCH  15  16
ATOM     16  C   UNL     1     -45.381-300.409  57.861  0.00  0.00    +0.000 C 
ATOM     17  O   UNL     1     -46.159-299.923  58.689  0.00  0.00    +0.000 OA
ATOM     18  N   UNL     1     -45.903-300.800  56.650  0.00  0.00    +0.000 N 
ATOM     19  H   UNL     1     -46.915-300.748  56.623  0.00  0.00    +0.000 HD
BRANCH  18  20
ATOM     20  C   UNL     1     -45.201-301.376  55.527  0.00  0.00    +0.000 C 
ATOM     21  C   UNL     1     -45.639-302.802  55.255  0.00  0.00    +0.000 C 
ATOM     22  C   UNL     1     -44.947-303.145  53.964  0.00  0.00    +0.000 C 
ATOM     23  C   UNL     1     -45.024-301.874  53.152  0.00  0.00    +0.000 C 
ATOM     24  C   UNL     1     -45.483-300.785  54.142  0.00  0.00    +0.000 C 
ENDBRANCH  18  20
ENDBRANCH  15  16
ENDBRANCH   4  15
TORSDOF 4
ENDMDL
MODEL 2
REMARK VINA RESULT:     0.000      5.283      9.194
REMARK INTER + INTRA:          -0.752
REMARK INTER:                   0.000
REMARK INTRA:                  -0.752
REMARK UNBOUND:                -0.752
REMARK  Name = 
REMARK  5 active torsions:
REMARK  status: ('A' for Active; 'I' for Inactive)
REMARK    1  A    between atoms: C_1  and  C_2
REMARK    2  A    between atoms: C_2  and  N_3
REMARK    3  A    between atoms: N_6  and  C_7
REMARK    4  A    between atoms: C_7  and  C_8
REMARK    5  A    between atoms: N_10  and  C_11
REMARK                            x       y       z     vdW  Elec       q    Type
REMARK                         _______ _______ _______ _____ _____    ______ ____
ROOT
ATOM      1  N   UNL     1     -44.518-296.560  55.339  0.00  0.00    +0.000 N 
ATOM      2  C   UNL     1     -43.667-297.500  55.946  0.00  0.00    +0.000 A 
ATOM      3  O   UNL     1     -43.668-298.688  55.617  0.00  0.00    +0.000 OA
ATOM      4  N   UNL     1     -42.718-297.020  56.841  0.00  0.00    +0.000 N 
ATOM      5  C   UNL     1     -42.524-295.686  57.151  0.00  0.00    +0.000 A 
ATOM      6  O   UNL     1     -41.619-295.276  57.888  0.00  0.00    +0.000 OA
ATOM      7  C   UNL     1     -43.364-294.710  56.447  0.00  0.00    +0.000 A 
ATOM      8  C   UNL     1     -43.051-293.348  56.570  0.00  0.00    +0.000 A 
ATOM      9  C   UNL     1     -43.648-292.425  55.724  0.00  0.00    +0.000 A 
ATOM     10  C   UNL     1     -44.705-292.831  54.922  0.00  0.00    +0.000 A 
ATOM     11  C   UNL     1     -45.072-294.179  54.864  0.00  0.00    +0.000 A 
ATOM     12  C   UNL     1     -44.345-295.156  55.557  0.00  0.00    +0.000 A 
ENDROOT
BRANCH   1  14
ATOM     13  C   UNL     1     -46.763-297.407  54.716  0.00  0.00    +0.000 C 
ATOM     14  C   UNL     1     -45.374-297.047  54.242  0.00  0.00    +0.000 C 
ENDBRANCH   1  14
BRANCH   4  15
ATOM     15  C   UNL     1     -41.718-297.956  57.349  0.00  0.00    +0.000 C 
BRANCH  15  16
ATOM     16  C   UNL     1     -42.039-298.562  58.737  0.00  0.00    +0.000 C 
ATOM     17  O   UNL     1     -43.031-299.282  58.890  0.00  0.00    +0.000 OA
ATOM     18  N   UNL     1     -41.185-298.418  59.805  0.00  0.00    +0.000 N 
ATOM     19  H   UNL     1     -41.543-298.840  60.655  0.00  0.00    +0.000 HD
BRANCH  18  20
ATOM     20  C   UNL     1     -39.965-297.648  59.867  0.00  0.00    +0.000 C 
ATOM     21  C   UNL     1     -40.072-296.492  60.842  0.00  0.00    +0.000 C 
ATOM     22  C   UNL     1     -38.671-295.947  60.900  0.00  0.00    +0.000 C 
ATOM     23  C   UNL     1     -37.792-297.174  60.854  0.00  0.00    +0.000 C 
ATOM     24  C   UNL     1     -38.730-298.332  60.463  0.00  0.00    +0.000 C 
ENDBRANCH  18  20
ENDBRANCH  15  16
ENDBRANCH   4  15
TORSDOF 4
ENDMDL
MODEL 3
REMARK VINA RESULT:     0.000      7.640      9.959
REMARK INTER + INTRA:          -0.752
REMARK INTER:                   0.000
REMARK INTRA:                  -0.752
REMARK UNBOUND:                -0.752
REMARK  Name = 
REMARK  5 active torsions:
REMARK  status: ('A' for Active; 'I' for Inactive)
REMARK    1  A    between atoms: C_1  and  C_2
REMARK    2  A    between atoms: C_2  and  N_3
REMARK    3  A    between atoms: N_6  and  C_7
REMARK    4  A    between atoms: C_7  and  C_8
REMARK    5  A    between atoms: N_10  and  C_11
REMARK                            x       y       z     vdW  Elec       q    Type
REMARK                         _______ _______ _______ _____ _____    ______ ____
ROOT
ATOM      1  N   UNL     1     -49.562-298.858  66.011  0.00  0.00    +0.000 N 
ATOM      2  C   UNL     1     -49.179-297.540  66.316  0.00  0.00    +0.000 A 
ATOM      3  O   UNL     1     -49.814-296.843  67.108  0.00  0.00    +0.000 OA
ATOM      4  N   UNL     1     -47.970-297.090  65.796  0.00  0.00    +0.000 N 
ATOM      5  C   UNL     1     -47.102-297.850  65.034  0.00  0.00    +0.000 A 
ATOM      6  O   UNL     1     -45.994-297.454  64.652  0.00  0.00    +0.000 OA
ATOM      7  C   UNL     1     -47.478-299.249  64.793  0.00  0.00    +0.000 A 
ATOM      8  C   UNL     1     -46.529-300.105  64.217  0.00  0.00    +0.000 A 
ATOM      9  C   UNL     1     -46.747-301.475  64.215  0.00  0.00    +0.000 A 
ATOM     10  C   UNL     1     -47.995-301.959  64.582  0.00  0.00    +0.000 A 
ATOM     11  C   UNL     1     -48.971-301.090  65.079  0.00  0.00    +0.000 A 
ATOM     12  C   UNL     1     -48.696-299.731  65.280  0.00  0.00    +0.000 A 
ENDROOT
BRANCH   1  14
ATOM     13  C   UNL     1     -52.008-299.260  65.933  0.00  0.00    +0.000 C 
ATOM     14  C   UNL     1     -50.732-299.395  66.731  0.00  0.00    +0.000 C 
ENDBRANCH   1  14
BRANCH   4  15
ATOM     15  C   UNL     1     -47.475-295.790  66.240  0.00  0.00    +0.000 C 
BRANCH  15  16
ATOM     16  C   UNL     1     -47.790-294.612  65.285  0.00  0.00    +0.000 C 
ATOM     17  O   UNL     1     -48.959-294.278  65.071  0.00  0.00    +0.000 OA
ATOM     18  N   UNL     1     -46.795-293.836  64.740  0.00  0.00    +0.000 N 
ATOM     19  H   UNL     1     -47.151-293.125  64.111  0.00  0.00    +0.000 HD
BRANCH  18  20
ATOM     20  C   UNL     1     -45.366-294.013  64.860  0.00  0.00    +0.000 C 
ATOM     21  C   UNL     1     -44.722-294.337  63.527  0.00  0.00    +0.000 C 
ATOM     22  C   UNL     1     -43.248-294.294  63.826  0.00  0.00    +0.000 C 
ATOM     23  C   UNL     1     -43.097-293.138  64.786  0.00  0.00    +0.000 C 
ATOM     24  C   UNL     1     -44.532-292.779  65.220  0.00  0.00    +0.000 C 
ENDBRANCH  18  20
ENDBRANCH  15  16
ENDBRANCH   4  15
TORSDOF 4
ENDMDL
MODEL 4
REMARK VINA RESULT:     0.000      7.008      9.063
REMARK INTER + INTRA:          -0.752
REMARK INTER:                   0.000
REMARK INTRA:                  -0.752
REMARK UNBOUND:                -0.752
REMARK  Name = 
REMARK  5 active torsions:
REMARK  status: ('A' for Active; 'I' for Inactive)
REMARK    1  A    between atoms: C_1  and  C_2
REMARK    2  A    between atoms: C_2  and  N_3
REMARK    3  A    between atoms: N_6  and  C_7
REMARK    4  A    between atoms: C_7  and  C_8
REMARK    5  A    between atoms: N_10  and  C_11
REMARK                            x       y       z     vdW  Elec       q    Type
REMARK                         _______ _______ _______ _____ _____    ______ ____
ROOT
ATOM      1  N   UNL     1     -47.050-304.318  59.047  0.00  0.00    +0.000 N 
ATOM      2  C   UNL     1     -47.301-304.184  60.424  0.00  0.00    +0.000 A 
ATOM      3  O   UNL     1     -46.619-303.452  61.144  0.00  0.00    +0.000 OA
ATOM      4  N   UNL     1     -48.441-304.801  60.929  0.00  0.00    +0.000 N 
ATOM      5  C   UNL     1     -49.362-305.505  60.175  0.00  0.00    +0.000 A 
ATOM      6  O   UNL     1     -50.410-305.975  60.633  0.00  0.00    +0.000 OA
ATOM      7  C   UNL     1     -49.129-305.566  58.727  0.00  0.00    +0.000 A 
ATOM      8  C   UNL     1     -50.146-306.079  57.909  0.00  0.00    +0.000 A 
ATOM      9  C   UNL     1     -50.073-305.913  56.533  0.00  0.00    +0.000 A 
ATOM     10  C   UNL     1     -48.894-305.442  55.973  0.00  0.00    +0.000 A 
ATOM     11  C   UNL     1     -47.846-305.009  56.792  0.00  0.00    +0.000 A 
ATOM     12  C   UNL     1     -47.982-304.978  58.186  0.00  0.00    +0.000 A 
ENDROOT
BRANCH   1  14
ATOM     13  C   UNL     1     -44.659-304.249  58.394  0.00  0.00    +0.000 C 
ATOM     14  C   UNL     1     -45.965-303.493  58.485  0.00  0.00    +0.000 C 
ENDBRANCH   1  14
BRANCH   4  15
ATOM     15  C   UNL     1     -48.808-304.531  62.317  0.00  0.00    +0.000 C 
BRANCH  15  16
ATOM     16  C   UNL     1     -48.344-305.601  63.334  0.00  0.00    +0.000 C 
ATOM     17  O   UNL     1     -47.140-305.805  63.521  0.00  0.00    +0.000 OA
ATOM     18  N   UNL     1     -49.236-306.273  64.137  0.00  0.00    +0.000 N 
ATOM     19  H   UNL     1     -48.789-306.965  64.728  0.00  0.00    +0.000 HD
BRANCH  18  20
ATOM     20  C   UNL     1     -50.678-306.193  64.121  0.00  0.00    +0.000 C 
ATOM     21  C   UNL     1     -51.314-307.505  63.707  0.00  0.00    +0.000 C 
ATOM     22  C   UNL     1     -52.783-307.273  63.934  0.00  0.00    +0.000 C 
ATOM     23  C   UNL     1     -52.839-306.460  65.206  0.00  0.00    +0.000 C 
ATOM     24  C   UNL     1     -51.388-306.012  65.467  0.00  0.00    +0.000 C 
ENDBRANCH  18  20
ENDBRANCH  15  16
ENDBRANCH   4  15
TORSDOF 4
ENDMDL
MODEL 5
REMARK VINA RESULT:     0.000      6.424      7.661
REMARK INTER + INTRA:          -0.752
REMARK INTER:                   0.000
REMARK INTRA:                  -0.752
REMARK UNBOUND:                -0.752
REMARK  Name = 
REMARK  5 active torsions:
REMARK  status: ('A' for Active; 'I' for Inactive)
REMARK    1  A    between atoms: C_1  and  C_2
REMARK    2  A    between atoms: C_2  and  N_3
REMARK    3  A    between atoms: N_6  and  C_7
REMARK    4  A    between atoms: C_7  and  C_8
REMARK    5  A    between atoms: N_10  and  C_11
REMARK                            x       y       z     vdW  Elec       q    Type
REMARK                         _______ _______ _______ _____ _____    ______ ____
ROOT
ATOM      1  N   UNL     1     -45.151-293.630  60.145  0.00  0.00    +0.000 N 
ATOM      2  C   UNL     1     -44.274-293.943  59.092  0.00  0.00    +0.000 A 
ATOM      3  O   UNL     1     -43.190-293.373  58.955  0.00  0.00    +0.000 OA
ATOM      4  N   UNL     1     -44.607-295.023  58.282  0.00  0.00    +0.000 N 
ATOM      5  C   UNL     1     -45.715-295.832  58.455  0.00  0.00    +0.000 A 
ATOM      6  O   UNL     1     -45.947-296.837  57.772  0.00  0.00    +0.000 OA
ATOM      7  C   UNL     1     -46.577-295.542  59.608  0.00  0.00    +0.000 A 
ATOM      8  C   UNL     1     -47.578-296.466  59.941  0.00  0.00    +0.000 A 
ATOM      9  C   UNL     1     -48.233-296.364  61.160  0.00  0.00    +0.000 A 
ATOM     10  C   UNL     1     -48.045-295.226  61.932  0.00  0.00    +0.000 A 
ATOM     11  C   UNL     1     -47.104-294.263  61.554  0.00  0.00    +0.000 A 
ATOM     12  C   UNL     1     -46.287-294.451  60.432  0.00  0.00    +0.000 A 
ENDROOT
BRANCH   1  14
ATOM     13  C   UNL     1     -45.206-291.240  60.804  0.00  0.00    +0.000 C 
ATOM     14  C   UNL     1     -44.690-292.625  61.120  0.00  0.00    +0.000 C 
ENDBRANCH   1  14
BRANCH   4  15
ATOM     15  C   UNL     1     -43.627-295.467  57.295  0.00  0.00    +0.000 C 
BRANCH  15  16
ATOM     16  C   UNL     1     -43.851-294.922  55.864  0.00  0.00    +0.000 C 
ATOM     17  O   UNL     1     -43.772-293.710  55.637  0.00  0.00    +0.000 OA
ATOM     18  N   UNL     1     -44.029-295.760  54.788  0.00  0.00    +0.000 N 
ATOM     19  H   UNL     1     -44.195-295.259  53.922  0.00  0.00    +0.000 HD
BRANCH  18  20
ATOM     20  C   UNL     1     -44.135-297.200  54.795  0.00  0.00    +0.000 C 
ATOM     21  C   UNL     1     -45.505-297.670  54.349  0.00  0.00    +0.000 C 
ATOM     22  C   UNL     1     -45.351-299.163  54.245  0.00  0.00    +0.000 C 
ATOM     23  C   UNL     1     -43.964-299.355  53.677  0.00  0.00    +0.000 C 
ATOM     24  C   UNL     1     -43.289-297.973  53.777  0.00  0.00    +0.000 C 
ENDBRANCH  18  20
ENDBRANCH  15  16
ENDBRANCH   4  15
TORSDOF 4
ENDMDL
MODEL 6
REMARK VINA RESULT:     0.000      4.555      6.112
REMARK INTER + INTRA:          -0.752
REMARK INTER:                   0.000
REMARK INTRA:                  -0.752
REMARK UNBOUND:                -0.752
REMARK  Name = 
REMARK  5 active torsions:
REMARK  status: ('A' for Active; 'I' for Inactive)
REMARK    1  A    between atoms: C_1  and  C_2
REMARK    2  A    between atoms: C_2  and  N_3
REMARK    3  A    between atoms: N_6  and  C_7
REMARK    4  A    between atoms: C_7  and  C_8
REMARK    5  A    between atoms: N_10  and  C_11
REMARK                            x       y       z     vdW  Elec       q    Type
REMARK                         _______ _______ _______ _____ _____    ______ ____
ROOT
ATOM      1  N   UNL     1     -43.556-300.998  62.037  0.00  0.00    +0.000 N 
ATOM      2  C   UNL     1     -44.297-299.847  61.718  0.00  0.00    +0.000 A 
ATOM      3  O   UNL     1     -43.782-298.870  61.170  0.00  0.00    +0.000 OA
ATOM      4  N   UNL     1     -45.673-299.897  61.914  0.00  0.00    +0.000 N 
ATOM      5  C   UNL     1     -46.369-301.004  62.366  0.00  0.00    +0.000 A 
ATOM      6  O   UNL     1     -47.602-301.051  62.454  0.00  0.00    +0.000 OA
ATOM      7  C   UNL     1     -45.592-302.223  62.617  0.00  0.00    +0.000 A 
ATOM      8  C   UNL     1     -46.284-303.418  62.862  0.00  0.00    +0.000 A 
ATOM      9  C   UNL     1     -45.603-304.626  62.842  0.00  0.00    +0.000 A 
ATOM     10  C   UNL     1     -44.216-304.617  62.801  0.00  0.00    +0.000 A 
ATOM     11  C   UNL     1     -43.522-303.414  62.640  0.00  0.00    +0.000 A 
ATOM     12  C   UNL     1     -44.204-302.204  62.452  0.00  0.00    +0.000 A 
ENDROOT
BRANCH   1  14
ATOM     13  C   UNL     1     -41.218-300.589  62.753  0.00  0.00    +0.000 C 
ATOM     14  C   UNL     1     -42.138-301.011  61.631  0.00  0.00    +0.000 C 
ENDBRANCH   1  14
BRANCH   4  15
ATOM     15  C   UNL     1     -46.476-298.778  61.430  0.00  0.00    +0.000 C 
BRANCH  15  16
ATOM     16  C   UNL     1     -46.830-297.719  62.502  0.00  0.00    +0.000 C 
ATOM     17  O   UNL     1     -45.939-297.057  63.046  0.00  0.00    +0.000 OA
ATOM     18  N   UNL     1     -48.134-297.399  62.802  0.00  0.00    +0.000 N 
ATOM     19  H   UNL     1     -48.210-296.713  63.545  0.00  0.00    +0.000 HD
BRANCH  18  20
ATOM     20  C   UNL     1     -49.337-298.011  62.289  0.00  0.00    +0.000 C 
ATOM     21  C   UNL     1     -50.119-298.722  63.375  0.00  0.00    +0.000 C 
ATOM     22  C   UNL     1     -51.399-299.117  62.690  0.00  0.00    +0.000 C 
ATOM     23  C   UNL     1     -51.719-297.943  61.795  0.00  0.00    +0.000 C 
ATOM     24  C   UNL     1     -50.444-297.077  61.789  0.00  0.00    +0.000 C 
ENDBRANCH  18  20
ENDBRANCH  15  16
ENDBRANCH   4  15
TORSDOF 4
ENDMDL
MODEL 7
REMARK VINA RESULT:     0.001      3.290      6.720
REMARK INTER + INTRA:          -0.751
REMARK INTER:                   0.000
REMARK INTRA:                  -0.751
REMARK UNBOUND:                -0.752
REMARK  Name = 
REMARK  5 active torsions:
REMARK  status: ('A' for Active; 'I' for Inactive)
REMARK    1  A    between atoms: C_1  and  C_2
REMARK    2  A    between atoms: C_2  and  N_3
REMARK    3  A    between atoms: N_6  and  C_7
REMARK    4  A    between atoms: C_7  and  C_8
REMARK    5  A    between atoms: N_10  and  C_11
REMARK                            x       y       z     vdW  Elec       q    Type
REMARK                         _______ _______ _______ _____ _____    ______ ____
ROOT
ATOM      1  N   UNL     1     -42.422-300.717  60.048  0.00  0.00    +0.000 N 
ATOM      2  C   UNL     1     -42.754-300.699  61.415  0.00  0.00    +0.000 A 
ATOM      3  O   UNL     1     -42.266-299.879  62.194  0.00  0.00    +0.000 OA
ATOM      4  N   UNL     1     -43.767-301.553  61.838  0.00  0.00    +0.000 N 
ATOM      5  C   UNL     1     -44.494-302.392  61.012  0.00  0.00    +0.000 A 
ATOM      6  O   UNL     1     -45.445-303.082  61.399  0.00  0.00    +0.000 OA
ATOM      7  C   UNL     1     -44.190-302.340  59.577  0.00  0.00    +0.000 A 
ATOM      8  C   UNL     1     -45.047-303.007  58.689  0.00  0.00    +0.000 A 
ATOM      9  C   UNL     1     -44.949-302.768  57.326  0.00  0.00    +0.000 A 
ATOM     10  C   UNL     1     -43.866-302.045  56.845  0.00  0.00    +0.000 A 
ATOM     11  C   UNL     1     -42.964-301.450  57.731  0.00  0.00    +0.000 A 
ATOM     12  C   UNL     1     -43.164-301.510  59.117  0.00  0.00    +0.000 A 
ENDROOT
BRANCH   1  14
ATOM     13  C   UNL     1     -40.068-300.143  59.522  0.00  0.00    +0.000 C 
ATOM     14  C   UNL     1     -41.502-299.668  59.573  0.00  0.00    +0.000 C 
ENDBRANCH   1  14
BRANCH   4  15
ATOM     15  C   UNL     1     -44.241-301.425  63.213  0.00  0.00    +0.000 C 
BRANCH  15  16
ATOM     16  C   UNL     1     -43.616-302.428  64.213  0.00  0.00    +0.000 C 
ATOM     17  O   UNL     1     -42.404-302.396  64.455  0.00  0.00    +0.000 OA
ATOM     18  N   UNL     1     -44.388-303.299  64.944  0.00  0.00    +0.000 N 
ATOM     19  H   UNL     1     -43.837-303.915  65.533  0.00  0.00    +0.000 HD
BRANCH  18  20
ATOM     20  C   UNL     1     -45.815-303.507  64.857  0.00  0.00    +0.000 C 
ATOM     21  C   UNL     1     -46.156-304.899  64.364  0.00  0.00    +0.000 C 
ATOM     22  C   UNL     1     -47.651-304.974  64.523  0.00  0.00    +0.000 C 
ATOM     23  C   UNL     1     -47.924-304.247  65.819  0.00  0.00    +0.000 C 
ATOM     24  C   UNL     1     -46.604-303.533  66.170  0.00  0.00    +0.000 C 
ENDBRANCH  18  20
ENDBRANCH  15  16
ENDBRANCH   4  15
TORSDOF 4
ENDMDL
MODEL 8
REMARK VINA RESULT:     0.001      5.914      9.396
REMARK INTER + INTRA:          -0.751
REMARK INTER:                   0.000
REMARK INTRA:                  -0.751
REMARK UNBOUND:                -0.752
REMARK  Name = 
REMARK  5 active torsions:
REMARK  status: ('A' for Active; 'I' for Inactive)
REMARK    1  A    between atoms: C_1  and  C_2
REMARK    2  A    between atoms: C_2  and  N_3
REMARK    3  A    between atoms: N_6  and  C_7
REMARK    4  A    between atoms: C_7  and  C_8
REMARK    5  A    between atoms: N_10  and  C_11
REMARK                            x       y       z     vdW  Elec       q    Type
REMARK                         _______ _______ _______ _____ _____    ______ ____
ROOT
ATOM      1  N   UNL     1     -45.363-294.632  59.760  0.00  0.00    +0.000 N 
ATOM      2  C   UNL     1     -44.957-295.886  60.251  0.00  0.00    +0.000 A 
ATOM      3  O   UNL     1     -45.702-296.868  60.228  0.00  0.00    +0.000 OA
ATOM      4  N   UNL     1     -43.629-296.022  60.638  0.00  0.00    +0.000 N 
ATOM      5  C   UNL     1     -42.670-295.029  60.545  0.00  0.00    +0.000 A 
ATOM      6  O   UNL     1     -41.476-295.198  60.820  0.00  0.00    +0.000 OA
ATOM      7  C   UNL     1     -43.090-293.752  59.955  0.00  0.00    +0.000 A 
ATOM      8  C   UNL     1     -42.103-292.805  59.645  0.00  0.00    +0.000 A 
ATOM      9  C   UNL     1     -42.424-291.709  58.855  0.00  0.00    +0.000 A 
ATOM     10  C   UNL     1     -43.757-291.451  58.571  0.00  0.00    +0.000 A 
ATOM     11  C   UNL     1     -44.750-292.357  58.956  0.00  0.00    +0.000 A 
ATOM     12  C   UNL     1     -44.422-293.570  59.574  0.00  0.00    +0.000 A 
ENDROOT
BRANCH   1  14
ATOM     13  C   UNL     1     -47.746-294.066  60.140  0.00  0.00    +0.000 C 
ATOM     14  C   UNL     1     -46.707-294.555  59.158  0.00  0.00    +0.000 C 
ENDBRANCH   1  14
BRANCH   4  15
ATOM     15  C   UNL     1     -43.149-297.356  60.987  0.00  0.00    +0.000 C 
BRANCH  15  16
ATOM     16  C   UNL     1     -43.138-297.669  62.503  0.00  0.00    +0.000 C 
ATOM     17  O   UNL     1     -44.194-297.703  63.142  0.00  0.00    +0.000 OA
ATOM     18  N   UNL     1     -41.984-298.027  63.160  0.00  0.00    +0.000 N 
ATOM     19  H   UNL     1     -42.125-298.170  64.154  0.00  0.00    +0.000 HD
BRANCH  18  20
ATOM     20  C   UNL     1     -40.642-298.081  62.630  0.00  0.00    +0.000 C 
ATOM     21  C   UNL     1     -39.731-297.062  63.286  0.00  0.00    +0.000 C 
ATOM     22  C   UNL     1     -38.370-297.402  62.744  0.00  0.00    +0.000 C 
ATOM     23  C   UNL     1     -38.356-298.912  62.695  0.00  0.00    +0.000 C 
ATOM     24  C   UNL     1     -39.819-299.340  62.922  0.00  0.00    +0.000 C 
ENDBRANCH  18  20
ENDBRANCH  15  16
ENDBRANCH   4  15
TORSDOF 4
ENDMDL
MODEL 9
REMARK VINA RESULT:     0.001      8.816     10.759
REMARK INTER + INTRA:          -0.751
REMARK INTER:                   0.000
REMARK INTRA:                  -0.751
REMARK UNBOUND:                -0.752
REMARK  Name = 
REMARK  5 active torsions:
REMARK  status: ('A' for Active; 'I' for Inactive)
REMARK    1  A    between atoms: C_1  and  C_2
REMARK    2  A    between atoms: C_2  and  N_3
REMARK    3  A    between atoms: N_6  and  C_7
REMARK    4  A    between atoms: C_7  and  C_8
REMARK    5  A    between atoms: N_10  and  C_11
REMARK                            x       y       z     vdW  Elec       q    Type
REMARK                         _______ _______ _______ _____ _____    ______ ____
ROOT
ATOM      1  N   UNL     1     -47.936-294.362  63.043  0.00  0.00    +0.000 N 
ATOM      2  C   UNL     1     -46.602-294.771  62.868  0.00  0.00    +0.000 A 
ATOM      3  O   UNL     1     -46.141-295.758  63.443  0.00  0.00    +0.000 OA
ATOM      4  N   UNL     1     -45.850-294.102  61.909  0.00  0.00    +0.000 N 
ATOM      5  C   UNL     1     -46.323-293.091  61.092  0.00  0.00    +0.000 A 
ATOM      6  O   UNL     1     -45.659-292.568  60.190  0.00  0.00    +0.000 OA
ATOM      7  C   UNL     1     -47.740-292.733  61.230  0.00  0.00    +0.000 A 
ATOM      8  C   UNL     1     -48.307-291.874  60.278  0.00  0.00    +0.000 A 
ATOM      9  C   UNL     1     -49.685-291.721  60.220  0.00  0.00    +0.000 A 
ATOM     10  C   UNL     1     -50.464-292.245  61.243  0.00  0.00    +0.000 A 
ATOM     11  C   UNL     1     -49.883-293.033  62.241  0.00  0.00    +0.000 A 
ATOM     12  C   UNL     1     -48.523-293.367  62.199  0.00  0.00    +0.000 A 
ENDROOT
BRANCH   1  14
ATOM     13  C   UNL     1     -48.854-294.690  65.323  0.00  0.00    +0.000 C 
ATOM     14  C   UNL     1     -48.784-295.207  63.905  0.00  0.00    +0.000 C 
ENDBRANCH   1  14
BRANCH   4  15
ATOM     15  C   UNL     1     -44.522-294.623  61.594  0.00  0.00    +0.000 C 
BRANCH  15  16
ATOM     16  C   UNL     1     -43.355-293.918  62.327  0.00  0.00    +0.000 C 
ATOM     17  O   UNL     1     -43.265-293.974  63.558  0.00  0.00    +0.000 OA
ATOM     18  N   UNL     1     -42.330-293.309  61.641  0.00  0.00    +0.000 N 
ATOM     19  H   UNL     1     -41.657-292.864  62.254  0.00  0.00    +0.000 HD
BRANCH  18  20
ATOM     20  C   UNL     1     -42.201-293.133  60.213  0.00  0.00    +0.000 C 
ATOM     21  C   UNL     1     -42.244-291.671  59.816  0.00  0.00    +0.000 C 
ATOM     22  C   UNL     1     -41.909-291.693  58.349  0.00  0.00    +0.000 C 
ATOM     23  C   UNL     1     -40.848-292.760  58.226  0.00  0.00    +0.000 C 
ATOM     24  C   UNL     1     -40.856-293.500  59.577  0.00  0.00    +0.000 C 
ENDBRANCH  18  20
ENDBRANCH  15  16
ENDBRANCH   4  15
TORSDOF 4
ENDMDL
MODEL 10
REMARK VINA RESULT:     0.002      4.143      6.325
REMARK INTER + INTRA:          -0.749
REMARK INTER:                   0.000
REMARK INTRA:                  -0.749
REMARK UNBOUND:                -0.752
REMARK  Name = 
REMARK  5 active torsions:
REMARK  status: ('A' for Active; 'I' for Inactive)
REMARK    1  A    between atoms: C_1  and  C_2
REMARK    2  A    between atoms: C_2  and  N_3
REMARK    3  A    between atoms: N_6  and  C_7
REMARK    4  A    between atoms: C_7  and  C_8
REMARK    5  A    between atoms: N_10  and  C_11
REMARK                            x       y       z     vdW  Elec       q    Type
REMARK                         _______ _______ _______ _____ _____    ______ ____
ROOT
ATOM      1  N   UNL     1     -44.932-300.481  58.474  0.00  0.00    +0.000 N 
ATOM      2  C   UNL     1     -45.450-299.215  58.799  0.00  0.00    +0.000 A 
ATOM      3  O   UNL     1     -44.778-298.365  59.385  0.00  0.00    +0.000 OA
ATOM      4  N   UNL     1     -46.713-298.897  58.311  0.00  0.00    +0.000 N 
ATOM      5  C   UNL     1     -47.481-299.716  57.503  0.00  0.00    +0.000 A 
ATOM      6  O   UNL     1     -48.565-299.378  57.013  0.00  0.00    +0.000 OA
ATOM      7  C   UNL     1     -46.891-301.000  57.105  0.00  0.00    +0.000 A 
ATOM      8  C   UNL     1     -47.540-301.756  56.118  0.00  0.00    +0.000 A 
ATOM      9  C   UNL     1     -46.888-302.832  55.533  0.00  0.00    +0.000 A 
ATOM     10  C   UNL     1     -45.696-303.279  56.086  0.00  0.00    +0.000 A 
ATOM     11  C   UNL     1     -45.091-302.570  57.129  0.00  0.00    +0.000 A 
ATOM     12  C   UNL     1     -45.633-301.365  57.595  0.00  0.00    +0.000 A 
ENDROOT
BRANCH   1  14
ATOM     13  C   UNL     1     -43.365-301.441  60.138  0.00  0.00    +0.000 C 
ATOM     14  C   UNL     1     -43.519-300.729  58.814  0.00  0.00    +0.000 C 
ENDBRANCH   1  14
BRANCH   4  15
ATOM     15  C   UNL     1     -47.194-297.530  58.492  0.00  0.00    +0.000 C 
BRANCH  15  16
ATOM     16  C   UNL     1     -48.125-297.323  59.712  0.00  0.00    +0.000 C 
ATOM     17  O   UNL     1     -47.701-297.500  60.858  0.00  0.00    +0.000 OA
ATOM     18  N   UNL     1     -49.402-296.833  59.574  0.00  0.00    +0.000 N 
ATOM     19  H   UNL     1     -49.901-296.782  60.455  0.00  0.00    +0.000 HD
BRANCH  18  20
ATOM     20  C   UNL     1     -50.109-296.532  58.351  0.00  0.00    +0.000 C 
ATOM     21  C   UNL     1     -51.310-297.435  58.153  0.00  0.00    +0.000 C 
ATOM     22  C   UNL     1     -52.001-296.848  56.952  0.00  0.00    +0.000 C 
ATOM     23  C   UNL     1     -51.856-295.355  57.133  0.00  0.00    +0.000 C 
ATOM     24  C   UNL     1     -50.826-295.180  58.266  0.00  0.00    +0.000 C 
ENDBRANCH  18  20
ENDBRANCH  15  16
ENDBRANCH   4  15
TORSDOF 4
ENDMDL
