MODEL 1
REMARK VINA RESULT:    -8.483      0.000      0.000
REMARK INTER + INTRA:         -11.262
REMARK INTER:                 -10.467
REMARK INTRA:                  -0.796
REMARK UNBOUND:                -0.796
REMARK  Name = 
REMARK  5 active torsions:
REMARK  status: ('A' for Active; 'I' for Inactive)
REMARK    1  A    between atoms: C_1  and  C_2
REMARK    2  A    between atoms: C_2  and  C_3
REMARK    3  A    between atoms: C_3  and  C_4
REMARK    4  A    between atoms: N_6  and  C_7
REMARK    5  A    between atoms: C_12  and  C_14
REMARK                            x       y       z     vdW  Elec       q    Type
REMARK                         _______ _______ _______ _____ _____    ______ ____
ROOT
ATOM      1  C   UNL     1     -42.704-157.188 308.210  0.00  0.00    +0.000 C 
ATOM      2  C   UNL     1     -41.581-157.528 307.209  0.00  0.00    +0.000 C 
ATOM      3  C   UNL     1     -41.286-159.005 307.244  0.00  0.00    +0.000 C 
ATOM      4  C   UNL     1     -40.754-159.279 308.624  0.00  0.00    +0.000 C 
ATOM      5  N   UNL     1     -41.723-158.890 309.660  0.00  0.00    +0.000 N 
ATOM      6  C   UNL     1     -42.423-159.738 310.512  0.00  0.00    +0.000 C 
ATOM      7  O   UNL     1     -43.280-159.362 311.284  0.00  0.00    +0.000 OA
ATOM      8  C   UNL     1     -42.167-157.508 309.609  0.00  0.00    +0.000 C 
ENDROOT
BRANCH   6   9
ATOM      9  C   UNL     1     -42.059-161.167 310.488  0.00  0.00    +0.000 A 
ATOM     10  C   UNL     1     -42.704-162.005 309.562  0.00  0.00    +0.000 A 
ATOM     11  C   UNL     1     -42.423-163.364 309.546  0.00  0.00    +0.000 A 
ATOM     12  C   UNL     1     -41.461-163.866 310.413  0.00  0.00    +0.000 A 
ATOM     13  F   UNL     1     -41.179-165.174 310.385  0.00  0.00    +0.000 F 
ATOM     14  C   UNL     1     -40.786-163.039 311.306  0.00  0.00    +0.000 A 
ATOM     15  C   UNL     1     -41.089-161.679 311.354  0.00  0.00    +0.000 A 
ATOM     16 CL   UNL     1     -40.267-160.712 312.524  0.00  0.00    +0.000 Cl
ENDBRANCH   6   9
BRANCH   1  19
ATOM     17  C   UNL     1     -45.040-157.427 307.114  0.00  0.00    +0.000 C 
ATOM     18  O   UNL     1     -45.971-158.211 306.912  0.00  0.00    +0.000 OA
ATOM     19  N   UNL     1     -43.984-157.847 307.881  0.00  0.00    +0.000 N 
ATOM     20  H   UNL     1     -44.169-158.745 308.324  0.00  0.00    +0.000 HD
BRANCH  17  21
ATOM     21  C   UNL     1     -45.049-156.055 306.445  0.00  0.00    +0.000 C 
BRANCH  21  23
ATOM     22  C   UNL     1     -43.249-154.803 304.908  0.00  0.00    +0.000 C 
ATOM     23  C   UNL     1     -44.271-155.918 305.109  0.00  0.00    +0.000 C 
ENDBRANCH  21  23
ENDBRANCH  17  21
ENDBRANCH   1  19
TORSDOF 4
ENDMDL
MODEL 2
REMARK VINA RESULT:    -7.821      3.115      4.348
REMARK INTER + INTRA:         -10.446
REMARK INTER:                  -9.817
REMARK INTRA:                  -0.628
REMARK UNBOUND:                -0.796
REMARK  Name = 
REMARK  5 active torsions:
REMARK  status: ('A' for Active; 'I' for Inactive)
REMARK    1  A    between atoms: C_1  and  C_2
REMARK    2  A    between atoms: C_2  and  C_3
REMARK    3  A    between atoms: C_3  and  C_4
REMARK    4  A    between atoms: N_6  and  C_7
REMARK    5  A    between atoms: C_12  and  C_14
REMARK                            x       y       z     vdW  Elec       q    Type
REMARK                         _______ _______ _______ _____ _____    ______ ____
ROOT
ATOM      1  C   UNL     1     -40.970-160.818 308.990  0.00  0.00    +0.000 C 
ATOM      2  C   UNL     1     -41.697-162.169 308.827  0.00  0.00    +0.000 C 
ATOM      3  C   UNL     1     -42.551-162.447 310.037  0.00  0.00    +0.000 C 
ATOM      4  C   UNL     1     -41.589-162.593 311.185  0.00  0.00    +0.000 C 
ATOM      5  N   UNL     1     -40.773-161.382 311.358  0.00  0.00    +0.000 N 
ATOM      6  C   UNL     1     -40.825-160.482 312.418  0.00  0.00    +0.000 C 
ATOM      7  O   UNL     1     -40.188-159.449 312.458  0.00  0.00    +0.000 OA
ATOM      8  C   UNL     1     -40.023-160.965 310.187  0.00  0.00    +0.000 C 
ENDROOT
BRANCH   6   9
ATOM      9  C   UNL     1     -41.676-160.843 313.567  0.00  0.00    +0.000 A 
ATOM     10  C   UNL     1     -41.156-161.720 314.533  0.00  0.00    +0.000 A 
ATOM     11  C   UNL     1     -41.947-162.120 315.602  0.00  0.00    +0.000 A 
ATOM     12  C   UNL     1     -43.227-161.598 315.727  0.00  0.00    +0.000 A 
ATOM     13  F   UNL     1     -43.983-161.972 316.767  0.00  0.00    +0.000 F 
ATOM     14  C   UNL     1     -43.739-160.696 314.799  0.00  0.00    +0.000 A 
ATOM     15  C   UNL     1     -42.964-160.317 313.704  0.00  0.00    +0.000 A 
ATOM     16 CL   UNL     1     -43.671-159.246 312.549  0.00  0.00    +0.000 Cl
ENDBRANCH   6   9
BRANCH   1  19
ATOM     17  C   UNL     1     -42.064-158.583 308.268  0.00  0.00    +0.000 C 
ATOM     18  O   UNL     1     -42.985-157.800 308.511  0.00  0.00    +0.000 OA
ATOM     19  N   UNL     1     -41.898-159.674 309.082  0.00  0.00    +0.000 N 
ATOM     20  H   UNL     1     -42.498-159.629 309.905  0.00  0.00    +0.000 HD
BRANCH  17  21
ATOM     21  C   UNL     1     -41.192-158.365 307.034  0.00  0.00    +0.000 C 
BRANCH  21  23
ATOM     22  C   UNL     1     -42.332-156.922 305.089  0.00  0.00    +0.000 C 
ATOM     23  C   UNL     1     -41.374-157.026 306.272  0.00  0.00    +0.000 C 
ENDBRANCH  21  23
ENDBRANCH  17  21
ENDBRANCH   1  19
TORSDOF 4
ENDMDL
MODEL 3
REMARK VINA RESULT:    -7.660      3.337      4.385
REMARK INTER + INTRA:         -10.248
REMARK INTER:                  -9.675
REMARK INTRA:                  -0.573
REMARK UNBOUND:                -0.796
REMARK  Name = 
REMARK  5 active torsions:
REMARK  status: ('A' for Active; 'I' for Inactive)
REMARK    1  A    between atoms: C_1  and  C_2
REMARK    2  A    between atoms: C_2  and  C_3
REMARK    3  A    between atoms: C_3  and  C_4
REMARK    4  A    between atoms: N_6  and  C_7
REMARK    5  A    between atoms: C_12  and  C_14
REMARK                            x       y       z     vdW  Elec       q    Type
REMARK                         _______ _______ _______ _____ _____    ______ ____
ROOT
ATOM      1  C   UNL     1     -42.039-160.092 310.480  0.00  0.00    +0.000 C 
ATOM      2  C   UNL     1     -41.099-160.206 311.698  0.00  0.00    +0.000 C 
ATOM      3  C   UNL     1     -39.822-160.900 311.303  0.00  0.00    +0.000 C 
ATOM      4  C   UNL     1     -40.224-162.297 310.916  0.00  0.00    +0.000 C 
ATOM      5  N   UNL     1     -41.204-162.290 309.820  0.00  0.00    +0.000 N 
ATOM      6  C   UNL     1     -41.002-162.727 308.515  0.00  0.00    +0.000 C 
ATOM      7  O   UNL     1     -41.824-162.609 307.629  0.00  0.00    +0.000 OA
ATOM      8  C   UNL     1     -42.410-161.521 310.069  0.00  0.00    +0.000 C 
ENDROOT
BRANCH   6   9
ATOM      9  C   UNL     1     -39.728-163.409 308.222  0.00  0.00    +0.000 A 
ATOM     10  C   UNL     1     -38.716-162.680 307.575  0.00  0.00    +0.000 A 
ATOM     11  C   UNL     1     -37.522-163.304 307.238  0.00  0.00    +0.000 A 
ATOM     12  C   UNL     1     -37.326-164.630 307.601  0.00  0.00    +0.000 A 
ATOM     13  F   UNL     1     -36.168-165.226 307.290  0.00  0.00    +0.000 F 
ATOM     14  C   UNL     1     -38.305-165.350 308.279  0.00  0.00    +0.000 A 
ATOM     15  C   UNL     1     -39.521-164.741 308.588  0.00  0.00    +0.000 A 
ATOM     16 CL   UNL     1     -40.724-165.700 309.373  0.00  0.00    +0.000 Cl
ENDBRANCH   6   9
BRANCH   1  19
ATOM     17  C   UNL     1     -42.048-158.327 308.583  0.00  0.00    +0.000 C 
ATOM     18  O   UNL     1     -41.330-157.703 307.798  0.00  0.00    +0.000 OA
ATOM     19  N   UNL     1     -41.471-159.271 309.392  0.00  0.00    +0.000 N 
ATOM     20  H   UNL     1     -40.501-159.447 309.137  0.00  0.00    +0.000 HD
BRANCH  17  21
ATOM     21  C   UNL     1     -43.531-157.977 308.691  0.00  0.00    +0.000 C 
BRANCH  21  23
ATOM     22  C   UNL     1     -44.300-155.523 307.950  0.00  0.00    +0.000 C 
ATOM     23  C   UNL     1     -44.104-157.002 307.630  0.00  0.00    +0.000 C 
ENDBRANCH  21  23
ENDBRANCH  17  21
ENDBRANCH   1  19
TORSDOF 4
ENDMDL
MODEL 4
REMARK VINA RESULT:    -6.553      1.673      2.025
REMARK INTER + INTRA:          -8.881
REMARK INTER:                  -9.299
REMARK INTRA:                   0.418
REMARK UNBOUND:                -0.796
REMARK  Name = 
REMARK  5 active torsions:
REMARK  status: ('A' for Active; 'I' for Inactive)
REMARK    1  A    between atoms: C_1  and  C_2
REMARK    2  A    between atoms: C_2  and  C_3
REMARK    3  A    between atoms: C_3  and  C_4
REMARK    4  A    between atoms: N_6  and  C_7
REMARK    5  A    between atoms: C_12  and  C_14
REMARK                            x       y       z     vdW  Elec       q    Type
REMARK                         _______ _______ _______ _____ _____    ______ ____
ROOT
ATOM      1  C   UNL     1     -43.691-156.705 307.497  0.00  0.00    +0.000 C 
ATOM      2  C   UNL     1     -42.732-157.041 306.336  0.00  0.00    +0.000 C 
ATOM      3  C   UNL     1     -42.120-158.401 306.546  0.00  0.00    +0.000 C 
ATOM      4  C   UNL     1     -41.286-158.281 307.794  0.00  0.00    +0.000 C 
ATOM      5  N   UNL     1     -42.101-157.863 308.945  0.00  0.00    +0.000 N 
ATOM      6  C   UNL     1     -42.421-158.625 310.063  0.00  0.00    +0.000 C 
ATOM      7  O   UNL     1     -43.177-158.255 310.938  0.00  0.00    +0.000 OA
ATOM      8  C   UNL     1     -42.838-156.625 308.768  0.00  0.00    +0.000 C 
ENDROOT
BRANCH   6   9
ATOM      9  C   UNL     1     -41.764-159.939 310.194  0.00  0.00    +0.000 A 
ATOM     10  C   UNL     1     -42.088-160.943 309.266  0.00  0.00    +0.000 A 
ATOM     11  C   UNL     1     -41.526-162.206 309.389  0.00  0.00    +0.000 A 
ATOM     12  C   UNL     1     -40.605-162.441 310.401  0.00  0.00    +0.000 A 
ATOM     13  F   UNL     1     -40.051-163.655 310.508  0.00  0.00    +0.000 F 
ATOM     14  C   UNL     1     -40.244-161.443 311.301  0.00  0.00    +0.000 A 
ATOM     15  C   UNL     1     -40.831-160.181 311.206  0.00  0.00    +0.000 A 
ATOM     16 CL   UNL     1     -40.396-159.000 312.388  0.00  0.00    +0.000 Cl
ENDBRANCH   6   9
BRANCH   1  19
ATOM     17  C   UNL     1     -45.739-158.040 306.638  0.00  0.00    +0.000 C 
ATOM     18  O   UNL     1     -46.558-158.912 306.939  0.00  0.00    +0.000 OA
ATOM     19  N   UNL     1     -44.833-157.637 307.585  0.00  0.00    +0.000 N 
ATOM     20  H   UNL     1     -45.045-158.025 308.503  0.00  0.00    +0.000 HD
BRANCH  17  21
ATOM     21  C   UNL     1     -45.702-157.497 305.212  0.00  0.00    +0.000 C 
BRANCH  21  23
ATOM     22  C   UNL     1     -47.743-158.993 304.338  0.00  0.00    +0.000 C 
ATOM     23  C   UNL     1     -46.372-158.362 304.112  0.00  0.00    +0.000 C 
ENDBRANCH  21  23
ENDBRANCH  17  21
ENDBRANCH   1  19
TORSDOF 4
ENDMDL
