MODEL 1
REMARK VINA RESULT:    -9.449      0.000      0.000
REMARK INTER + INTRA:         -14.731
REMARK INTER:                 -13.868
REMARK INTRA:                  -0.863
REMARK UNBOUND:                -0.863
REMARK  Name = 
REMARK  10 active torsions:
REMARK  status: ('A' for Active; 'I' for Inactive)
REMARK    1  A    between atoms: C_1  and  C_2
REMARK    2  A    between atoms: C_2  and  C_3
REMARK    3  A    between atoms: C_3  and  C_5
REMARK    4  A    between atoms: C_11  and  O_12
REMARK    5  A    between atoms: O_12  and  C_13
REMARK    6  A    between atoms: C_13  and  C_14
REMARK    7  A    between atoms: N_16  and  C_17
REMARK    8  A    between atoms: C_17  and  C_18
REMARK    9  A    between atoms: C_17  and  C_19
REMARK   10  A    between atoms: C_19  and  C_20
REMARK                            x       y       z     vdW  Elec       q    Type
REMARK                         _______ _______ _______ _____ _____    ______ ____
ROOT
ATOM      1  C   UNL     1     -42.120-158.475 308.409  0.00  0.00    +0.000 C 
ENDROOT
BRANCH   1   2
ATOM      2  C   UNL     1     -41.876-157.865 306.975  0.00  0.00    +0.000 C 
ATOM      3  O   UNL     1     -40.962-158.210 306.221  0.00  0.00    +0.000 OA
ATOM      4  N   UNL     1     -42.755-156.883 306.580  0.00  0.00    +0.000 N 
ATOM      5  H   UNL     1     -42.479-156.455 305.701  0.00  0.00    +0.000 HD
BRANCH   4   6
ATOM      6  C   UNL     1     -44.165-157.081 306.810  0.00  0.00    +0.000 C 
ATOM      7  C   UNL     1     -44.623-156.076 307.852  0.00  0.00    +0.000 C 
BRANCH   6   8
ATOM      8  C   UNL     1     -44.961-156.991 305.500  0.00  0.00    +0.000 C 
BRANCH   8   9
ATOM      9  C   UNL     1     -46.004-158.051 305.326  0.00  0.00    +0.000 A 
ATOM     10  C   UNL     1     -46.567-158.615 304.206  0.00  0.00    +0.000 A 
ATOM     11  C   UNL     1     -47.525-159.556 304.657  0.00  0.00    +0.000 A 
ATOM     12  C   UNL     1     -47.491-159.513 306.029  0.00  0.00    +0.000 A 
ATOM     13  O   UNL     1     -46.524-158.650 306.432  0.00  0.00    +0.000 OA
ENDBRANCH   8   9
ENDBRANCH   6   8
ENDBRANCH   4   6
ENDBRANCH   1   2
BRANCH   1  14
ATOM     14  O   UNL     1     -41.031-159.016 309.191  0.00  0.00    +0.000 OA
BRANCH  14  21
ATOM     15  C   UNL     1     -41.179-160.697 311.024  0.00  0.00    +0.000 A 
ATOM     16  C   UNL     1     -41.410-162.045 311.343  0.00  0.00    +0.000 A 
ATOM     17  C   UNL     1     -41.281-163.033 310.397  0.00  0.00    +0.000 A 
ATOM     18  F   UNL     1     -41.440-164.309 310.767  0.00  0.00    +0.000 F 
ATOM     19  C   UNL     1     -41.005-162.691 309.090  0.00  0.00    +0.000 A 
ATOM     20  C   UNL     1     -40.908-161.329 308.733  0.00  0.00    +0.000 A 
ATOM     21  C   UNL     1     -41.028-160.295 309.695  0.00  0.00    +0.000 A 
BRANCH  15  22
ATOM     22  C   UNL     1     -41.534-159.774 312.099  0.00  0.00    +0.000 C 
ATOM     23  O   UNL     1     -40.592-159.378 312.725  0.00  0.00    +0.000 OA
BRANCH  22  25
ATOM     24  C   UNL     1     -43.592-159.766 313.314  0.00  0.00    +0.000 C 
ATOM     25  C   UNL     1     -42.847-159.053 312.205  0.00  0.00    +0.000 C 
ENDBRANCH  22  25
ENDBRANCH  15  22
ENDBRANCH  14  21
ENDBRANCH   1  14
TORSDOF 8
ENDMDL
MODEL 2
REMARK VINA RESULT:    -9.154      1.528      2.812
REMARK INTER + INTRA:         -14.297
REMARK INTER:                 -13.562
REMARK INTRA:                  -0.735
REMARK UNBOUND:                -0.863
REMARK  Name = 
REMARK  10 active torsions:
REMARK  status: ('A' for Active; 'I' for Inactive)
REMARK    1  A    between atoms: C_1  and  C_2
REMARK    2  A    between atoms: C_2  and  C_3
REMARK    3  A    between atoms: C_3  and  C_5
REMARK    4  A    between atoms: C_11  and  O_12
REMARK    5  A    between atoms: O_12  and  C_13
REMARK    6  A    between atoms: C_13  and  C_14
REMARK    7  A    between atoms: N_16  and  C_17
REMARK    8  A    between atoms: C_17  and  C_18
REMARK    9  A    between atoms: C_17  and  C_19
REMARK   10  A    between atoms: C_19  and  C_20
REMARK                            x       y       z     vdW  Elec       q    Type
REMARK                         _______ _______ _______ _____ _____    ______ ____
ROOT
ATOM      1  C   UNL     1     -42.181-158.342 308.126  0.00  0.00    +0.000 C 
ENDROOT
BRANCH   1   2
ATOM      2  C   UNL     1     -41.956-157.616 306.744  0.00  0.00    +0.000 C 
ATOM      3  O   UNL     1     -41.063-157.909 305.944  0.00  0.00    +0.000 OA
ATOM      4  N   UNL     1     -42.826-156.590 306.452  0.00  0.00    +0.000 N 
ATOM      5  H   UNL     1     -42.560-156.094 305.607  0.00  0.00    +0.000 HD
BRANCH   4   6
ATOM      6  C   UNL     1     -44.234-156.786 306.695  0.00  0.00    +0.000 C 
ATOM      7  C   UNL     1     -44.719-155.674 307.607  0.00  0.00    +0.000 C 
BRANCH   6   8
ATOM      8  C   UNL     1     -45.020-156.867 305.378  0.00  0.00    +0.000 C 
BRANCH   8   9
ATOM      9  C   UNL     1     -46.005-157.991 305.304  0.00  0.00    +0.000 A 
ATOM     10  C   UNL     1     -46.618-158.611 304.241  0.00  0.00    +0.000 A 
ATOM     11  C   UNL     1     -47.478-159.599 304.781  0.00  0.00    +0.000 A 
ATOM     12  C   UNL     1     -47.340-159.525 306.145  0.00  0.00    +0.000 A 
ATOM     13  O   UNL     1     -46.400-158.598 306.456  0.00  0.00    +0.000 OA
ENDBRANCH   8   9
ENDBRANCH   6   8
ENDBRANCH   4   6
ENDBRANCH   1   2
BRANCH   1  14
ATOM     14  O   UNL     1     -41.274-159.364 308.595  0.00  0.00    +0.000 OA
BRANCH  14  21
ATOM     15  C   UNL     1     -41.509-161.213 310.250  0.00  0.00    +0.000 A 
ATOM     16  C   UNL     1     -41.272-161.620 311.572  0.00  0.00    +0.000 A 
ATOM     17  C   UNL     1     -41.057-160.703 312.572  0.00  0.00    +0.000 A 
ATOM     18  F   UNL     1     -40.909-161.138 313.829  0.00  0.00    +0.000 F 
ATOM     19  C   UNL     1     -40.986-159.361 312.261  0.00  0.00    +0.000 A 
ATOM     20  C   UNL     1     -41.086-158.954 310.913  0.00  0.00    +0.000 A 
ATOM     21  C   UNL     1     -41.317-159.883 309.868  0.00  0.00    +0.000 A 
BRANCH  15  22
ATOM     22  C   UNL     1     -41.537-162.317 309.295  0.00  0.00    +0.000 C 
ATOM     23  O   UNL     1     -42.488-163.036 309.418  0.00  0.00    +0.000 OA
BRANCH  22  25
ATOM     24  C   UNL     1     -39.318-162.691 308.489  0.00  0.00    +0.000 C 
ATOM     25  C   UNL     1     -40.727-162.375 308.032  0.00  0.00    +0.000 C 
ENDBRANCH  22  25
ENDBRANCH  15  22
ENDBRANCH  14  21
ENDBRANCH   1  14
TORSDOF 8
ENDMDL
MODEL 3
REMARK VINA RESULT:    -8.706      2.571      3.703
REMARK INTER + INTRA:         -13.640
REMARK INTER:                 -12.998
REMARK INTRA:                  -0.642
REMARK UNBOUND:                -0.863
REMARK  Name = 
REMARK  10 active torsions:
REMARK  status: ('A' for Active; 'I' for Inactive)
REMARK    1  A    between atoms: C_1  and  C_2
REMARK    2  A    between atoms: C_2  and  C_3
REMARK    3  A    between atoms: C_3  and  C_5
REMARK    4  A    between atoms: C_11  and  O_12
REMARK    5  A    between atoms: O_12  and  C_13
REMARK    6  A    between atoms: C_13  and  C_14
REMARK    7  A    between atoms: N_16  and  C_17
REMARK    8  A    between atoms: C_17  and  C_18
REMARK    9  A    between atoms: C_17  and  C_19
REMARK   10  A    between atoms: C_19  and  C_20
REMARK                            x       y       z     vdW  Elec       q    Type
REMARK                         _______ _______ _______ _____ _____    ______ ____
ROOT
ATOM      1  C   UNL     1     -41.966-159.937 309.267  0.00  0.00    +0.000 C 
ENDROOT
BRANCH   1   2
ATOM      2  C   UNL     1     -40.942-159.634 308.107  0.00  0.00    +0.000 C 
ATOM      3  O   UNL     1     -40.100-160.437 307.697  0.00  0.00    +0.000 OA
ATOM      4  N   UNL     1     -41.018-158.379 307.547  0.00  0.00    +0.000 N 
ATOM      5  H   UNL     1     -40.265-158.208 306.888  0.00  0.00    +0.000 HD
BRANCH   4   6
ATOM      6  C   UNL     1     -42.318-157.842 307.225  0.00  0.00    +0.000 C 
ATOM      7  C   UNL     1     -42.626-156.723 308.203  0.00  0.00    +0.000 C 
BRANCH   6   8
ATOM      8  C   UNL     1     -42.387-157.392 305.758  0.00  0.00    +0.000 C 
BRANCH   8   9
ATOM      9  C   UNL     1     -43.363-156.291 305.485  0.00  0.00    +0.000 A 
ATOM     10  C   UNL     1     -43.207-155.026 304.971  0.00  0.00    +0.000 A 
ATOM     11  C   UNL     1     -44.487-154.421 304.966  0.00  0.00    +0.000 A 
ATOM     12  C   UNL     1     -45.355-155.355 305.479  0.00  0.00    +0.000 A 
ATOM     13  O   UNL     1     -44.685-156.507 305.730  0.00  0.00    +0.000 OA
ENDBRANCH   8   9
ENDBRANCH   6   8
ENDBRANCH   4   6
ENDBRANCH   1   2
BRANCH   1  14
ATOM     14  O   UNL     1     -41.836-159.316 310.566  0.00  0.00    +0.000 OA
BRANCH  14  21
ATOM     15  C   UNL     1     -41.494-161.021 312.351  0.00  0.00    +0.000 A 
ATOM     16  C   UNL     1     -41.793-161.390 313.672  0.00  0.00    +0.000 A 
ATOM     17  C   UNL     1     -42.882-160.868 314.327  0.00  0.00    +0.000 A 
ATOM     18  F   UNL     1     -43.168-161.307 315.560  0.00  0.00    +0.000 F 
ATOM     19  C   UNL     1     -43.646-159.899 313.713  0.00  0.00    +0.000 A 
ATOM     20  C   UNL     1     -43.271-159.422 312.438  0.00  0.00    +0.000 A 
ATOM     21  C   UNL     1     -42.157-159.953 311.741  0.00  0.00    +0.000 A 
BRANCH  15  22
ATOM     22  C   UNL     1     -40.210-161.533 311.879  0.00  0.00    +0.000 C 
ATOM     23  O   UNL     1     -39.294-161.284 312.611  0.00  0.00    +0.000 OA
BRANCH  22  25
ATOM     24  C   UNL     1     -41.247-163.500 311.003  0.00  0.00    +0.000 C 
ATOM     25  C   UNL     1     -40.048-162.592 310.827  0.00  0.00    +0.000 C 
ENDBRANCH  22  25
ENDBRANCH  15  22
ENDBRANCH  14  21
ENDBRANCH   1  14
TORSDOF 8
ENDMDL
MODEL 4
REMARK VINA RESULT:    -8.419      2.157      4.227
REMARK INTER + INTRA:         -13.220
REMARK INTER:                 -12.449
REMARK INTRA:                  -0.770
REMARK UNBOUND:                -0.863
REMARK  Name = 
REMARK  10 active torsions:
REMARK  status: ('A' for Active; 'I' for Inactive)
REMARK    1  A    between atoms: C_1  and  C_2
REMARK    2  A    between atoms: C_2  and  C_3
REMARK    3  A    between atoms: C_3  and  C_5
REMARK    4  A    between atoms: C_11  and  O_12
REMARK    5  A    between atoms: O_12  and  C_13
REMARK    6  A    between atoms: C_13  and  C_14
REMARK    7  A    between atoms: N_16  and  C_17
REMARK    8  A    between atoms: C_17  and  C_18
REMARK    9  A    between atoms: C_17  and  C_19
REMARK   10  A    between atoms: C_19  and  C_20
REMARK                            x       y       z     vdW  Elec       q    Type
REMARK                         _______ _______ _______ _____ _____    ______ ____
ROOT
ATOM      1  C   UNL     1     -43.639-157.801 308.287  0.00  0.00    +0.000 C 
ENDROOT
BRANCH   1   2
ATOM      2  C   UNL     1     -44.418-156.481 307.918  0.00  0.00    +0.000 C 
ATOM      3  O   UNL     1     -44.149-155.366 308.374  0.00  0.00    +0.000 OA
ATOM      4  N   UNL     1     -45.463-156.624 307.033  0.00  0.00    +0.000 N 
ATOM      5  H   UNL     1     -45.991-155.763 306.923  0.00  0.00    +0.000 HD
BRANCH   4   6
ATOM      6  C   UNL     1     -45.271-157.441 305.860  0.00  0.00    +0.000 C 
ATOM      7  C   UNL     1     -46.635-157.861 305.344  0.00  0.00    +0.000 C 
BRANCH   6   8
ATOM      8  C   UNL     1     -44.429-156.710 304.804  0.00  0.00    +0.000 C 
BRANCH   8   9
ATOM      9  C   UNL     1     -42.953-156.743 305.047  0.00  0.00    +0.000 A 
ATOM     10  C   UNL     1     -42.035-155.748 305.286  0.00  0.00    +0.000 A 
ATOM     11  C   UNL     1     -40.771-156.374 305.414  0.00  0.00    +0.000 A 
ATOM     12  C   UNL     1     -40.990-157.719 305.245  0.00  0.00    +0.000 A 
ATOM     13  O   UNL     1     -42.319-157.947 305.088  0.00  0.00    +0.000 OA
ENDBRANCH   8   9
ENDBRANCH   6   8
ENDBRANCH   4   6
ENDBRANCH   1   2
BRANCH   1  14
ATOM     14  O   UNL     1     -42.338-157.756 308.914  0.00  0.00    +0.000 OA
BRANCH  14  21
ATOM     15  C   UNL     1     -41.364-159.859 309.832  0.00  0.00    +0.000 A 
ATOM     16  C   UNL     1     -40.810-160.481 310.961  0.00  0.00    +0.000 A 
ATOM     17  C   UNL     1     -41.024-159.986 312.224  0.00  0.00    +0.000 A 
ATOM     18  F   UNL     1     -40.536-160.656 313.275  0.00  0.00    +0.000 F 
ATOM     19  C   UNL     1     -41.723-158.807 312.384  0.00  0.00    +0.000 A 
ATOM     20  C   UNL     1     -42.165-158.102 311.244  0.00  0.00    +0.000 A 
ATOM     21  C   UNL     1     -41.962-158.601 309.933  0.00  0.00    +0.000 A 
BRANCH  15  22
ATOM     22  C   UNL     1     -40.888-160.413 308.567  0.00  0.00    +0.000 C 
ATOM     23  O   UNL     1     -40.177-159.670 307.953  0.00  0.00    +0.000 OA
BRANCH  22  25
ATOM     24  C   UNL     1     -39.474-162.226 307.913  0.00  0.00    +0.000 C 
ATOM     25  C   UNL     1     -40.916-161.872 308.211  0.00  0.00    +0.000 C 
ENDBRANCH  22  25
ENDBRANCH  15  22
ENDBRANCH  14  21
ENDBRANCH   1  14
TORSDOF 8
ENDMDL
