MODEL 1
REMARK VINA RESULT:    -8.487      0.000      0.000
REMARK INTER + INTRA:         -11.261
REMARK INTER:                 -10.471
REMARK INTRA:                  -0.790
REMARK UNBOUND:                -0.790
REMARK  Name = 
REMARK  5 active torsions:
REMARK  status: ('A' for Active; 'I' for Inactive)
REMARK    1  A    between atoms: C_1  and  C_2
REMARK    2  A    between atoms: C_2  and  C_3
REMARK    3  A    between atoms: C_3  and  C_4
REMARK    4  A    between atoms: N_6  and  C_7
REMARK    5  A    between atoms: C_12  and  C_14
REMARK                            x       y       z     vdW  Elec       q    Type
REMARK                         _______ _______ _______ _____ _____    ______ ____
ROOT
ATOM      1  C   UNL     1     -42.700-157.187 308.213  0.00  0.00    +0.000 C 
ATOM      2  C   UNL     1     -41.577-157.530 307.213  0.00  0.00    +0.000 C 
ATOM      3  C   UNL     1     -41.286-159.007 307.247  0.00  0.00    +0.000 C 
ATOM      4  C   UNL     1     -40.755-159.283 308.628  0.00  0.00    +0.000 C 
ATOM      5  N   UNL     1     -41.724-158.892 309.663  0.00  0.00    +0.000 N 
ATOM      6  C   UNL     1     -42.427-159.739 310.514  0.00  0.00    +0.000 C 
ATOM      7  O   UNL     1     -43.284-159.361 311.286  0.00  0.00    +0.000 OA
ATOM      8  C   UNL     1     -42.165-157.509 309.612  0.00  0.00    +0.000 C 
ENDROOT
BRANCH   6   9
ATOM      9  C   UNL     1     -42.066-161.169 310.490  0.00  0.00    +0.000 A 
ATOM     10  C   UNL     1     -42.713-162.004 309.564  0.00  0.00    +0.000 A 
ATOM     11  C   UNL     1     -42.435-163.365 309.548  0.00  0.00    +0.000 A 
ATOM     12  C   UNL     1     -41.475-163.869 310.414  0.00  0.00    +0.000 A 
ATOM     13  F   UNL     1     -41.196-165.178 310.386  0.00  0.00    +0.000 F 
ATOM     14  C   UNL     1     -40.797-163.044 311.307  0.00  0.00    +0.000 A 
ATOM     15  C   UNL     1     -41.097-161.683 311.355  0.00  0.00    +0.000 A 
ATOM     16 CL   UNL     1     -40.272-160.718 312.526  0.00  0.00    +0.000 Cl
ENDBRANCH   6   9
BRANCH   1  19
ATOM     17  C   UNL     1     -45.036-157.420 307.116  0.00  0.00    +0.000 C 
ATOM     18  O   UNL     1     -45.969-158.202 306.913  0.00  0.00    +0.000 OA
ATOM     19  N   UNL     1     -43.982-157.843 307.883  0.00  0.00    +0.000 N 
ATOM     20  H   UNL     1     -44.169-158.741 308.325  0.00  0.00    +0.000 HD
BRANCH  17  21
ATOM     21  C   UNL     1     -45.041-156.048 306.447  0.00  0.00    +0.000 C 
BRANCH  21  23
ATOM     22  C   UNL     1     -43.274-154.769 304.895  0.00  0.00    +0.000 C 
ATOM     23  C   UNL     1     -44.261-155.912 305.113  0.00  0.00    +0.000 C 
ENDBRANCH  21  23
ENDBRANCH  17  21
ENDBRANCH   1  19
TORSDOF 4
ENDMDL
MODEL 2
REMARK VINA RESULT:    -7.950      3.809      7.225
REMARK INTER + INTRA:         -10.599
REMARK INTER:                 -10.043
REMARK INTRA:                  -0.556
REMARK UNBOUND:                -0.790
REMARK  Name = 
REMARK  5 active torsions:
REMARK  status: ('A' for Active; 'I' for Inactive)
REMARK    1  A    between atoms: C_1  and  C_2
REMARK    2  A    between atoms: C_2  and  C_3
REMARK    3  A    between atoms: C_3  and  C_4
REMARK    4  A    between atoms: N_6  and  C_7
REMARK    5  A    between atoms: C_12  and  C_14
REMARK                            x       y       z     vdW  Elec       q    Type
REMARK                         _______ _______ _______ _____ _____    ______ ____
ROOT
ATOM      1  C   UNL     1     -40.536-164.065 310.371  0.00  0.00    +0.000 C 
ATOM      2  C   UNL     1     -41.818-164.444 309.601  0.00  0.00    +0.000 C 
ATOM      3  C   UNL     1     -42.332-163.254 308.833  0.00  0.00    +0.000 C 
ATOM      4  C   UNL     1     -42.719-162.237 309.873  0.00  0.00    +0.000 C 
ATOM      5  N   UNL     1     -41.576-161.884 310.729  0.00  0.00    +0.000 N 
ATOM      6  C   UNL     1     -40.913-160.663 310.778  0.00  0.00    +0.000 C 
ATOM      7  O   UNL     1     -39.915-160.462 311.439  0.00  0.00    +0.000 OA
ATOM      8  C   UNL     1     -40.933-163.001 311.400  0.00  0.00    +0.000 C 
ENDROOT
BRANCH   6   9
ATOM      9  C   UNL     1     -41.494-159.549 310.005  0.00  0.00    +0.000 A 
ATOM     10  C   UNL     1     -42.297-158.616 310.683  0.00  0.00    +0.000 A 
ATOM     11  C   UNL     1     -42.902-157.583 309.978  0.00  0.00    +0.000 A 
ATOM     12  C   UNL     1     -42.654-157.458 308.618  0.00  0.00    +0.000 A 
ATOM     13  F   UNL     1     -43.225-156.452 307.942  0.00  0.00    +0.000 F 
ATOM     14  C   UNL     1     -41.828-158.352 307.944  0.00  0.00    +0.000 A 
ATOM     15  C   UNL     1     -41.246-159.413 308.637  0.00  0.00    +0.000 A 
ATOM     16 CL   UNL     1     -40.282-160.528 307.739  0.00  0.00    +0.000 Cl
ENDBRANCH   6   9
BRANCH   1  19
ATOM     17  C   UNL     1     -38.829-164.335 308.440  0.00  0.00    +0.000 C 
ATOM     18  O   UNL     1     -37.970-163.746 307.778  0.00  0.00    +0.000 OA
ATOM     19  N   UNL     1     -39.428-163.670 309.479  0.00  0.00    +0.000 N 
ATOM     20  H   UNL     1     -38.973-162.779 309.672  0.00  0.00    +0.000 HD
BRANCH  17  21
ATOM     21  C   UNL     1     -39.256-165.744 308.039  0.00  0.00    +0.000 C 
BRANCH  21  23
ATOM     22  C   UNL     1     -38.738-167.563 306.145  0.00  0.00    +0.000 C 
ATOM     23  C   UNL     1     -39.087-166.134 306.547  0.00  0.00    +0.000 C 
ENDBRANCH  21  23
ENDBRANCH  17  21
ENDBRANCH   1  19
TORSDOF 4
ENDMDL
MODEL 3
REMARK VINA RESULT:    -7.905      3.139      4.493
REMARK INTER + INTRA:         -10.543
REMARK INTER:                  -9.958
REMARK INTRA:                  -0.585
REMARK UNBOUND:                -0.790
REMARK  Name = 
REMARK  5 active torsions:
REMARK  status: ('A' for Active; 'I' for Inactive)
REMARK    1  A    between atoms: C_1  and  C_2
REMARK    2  A    between atoms: C_2  and  C_3
REMARK    3  A    between atoms: C_3  and  C_4
REMARK    4  A    between atoms: N_6  and  C_7
REMARK    5  A    between atoms: C_12  and  C_14
REMARK                            x       y       z     vdW  Elec       q    Type
REMARK                         _______ _______ _______ _____ _____    ______ ____
ROOT
ATOM      1  C   UNL     1     -40.975-161.139 309.034  0.00  0.00    +0.000 C 
ATOM      2  C   UNL     1     -41.694-162.500 308.931  0.00  0.00    +0.000 C 
ATOM      3  C   UNL     1     -42.542-162.732 310.155  0.00  0.00    +0.000 C 
ATOM      4  C   UNL     1     -41.576-162.822 311.305  0.00  0.00    +0.000 C 
ATOM      5  N   UNL     1     -40.766-161.600 311.423  0.00  0.00    +0.000 N 
ATOM      6  C   UNL     1     -40.820-160.657 312.443  0.00  0.00    +0.000 C 
ATOM      7  O   UNL     1     -40.190-159.619 312.437  0.00  0.00    +0.000 OA
ATOM      8  C   UNL     1     -40.023-161.229 310.232  0.00  0.00    +0.000 C 
ENDROOT
BRANCH   6   9
ATOM      9  C   UNL     1     -41.665-160.973 313.610  0.00  0.00    +0.000 A 
ATOM     10  C   UNL     1     -41.154-161.843 314.587  0.00  0.00    +0.000 A 
ATOM     11  C   UNL     1     -41.941-162.203 315.673  0.00  0.00    +0.000 A 
ATOM     12  C   UNL     1     -43.207-161.647 315.804  0.00  0.00    +0.000 A 
ATOM     13  F   UNL     1     -43.959-161.981 316.860  0.00  0.00    +0.000 F 
ATOM     14  C   UNL     1     -43.708-160.751 314.864  0.00  0.00    +0.000 A 
ATOM     15  C   UNL     1     -42.938-160.413 313.752  0.00  0.00    +0.000 A 
ATOM     16 CL   UNL     1     -43.634-159.348 312.585  0.00  0.00    +0.000 Cl
ENDBRANCH   6   9
BRANCH   1  19
ATOM     17  C   UNL     1     -41.978-158.860 308.319  0.00  0.00    +0.000 C 
ATOM     18  O   UNL     1     -42.924-158.088 308.494  0.00  0.00    +0.000 OA
ATOM     19  N   UNL     1     -41.910-159.998 309.080  0.00  0.00    +0.000 N 
ATOM     20  H   UNL     1     -42.605-159.998 309.825  0.00  0.00    +0.000 HD
BRANCH  17  21
ATOM     21  C   UNL     1     -40.963-158.573 307.215  0.00  0.00    +0.000 C 
BRANCH  21  23
ATOM     22  C   UNL     1     -41.714-157.377 304.941  0.00  0.00    +0.000 C 
ATOM     23  C   UNL     1     -41.186-157.291 306.370  0.00  0.00    +0.000 C 
ENDBRANCH  21  23
ENDBRANCH  17  21
ENDBRANCH   1  19
TORSDOF 4
ENDMDL
MODEL 4
REMARK VINA RESULT:    -7.637      3.353      4.426
REMARK INTER + INTRA:         -10.213
REMARK INTER:                  -9.658
REMARK INTRA:                  -0.555
REMARK UNBOUND:                -0.790
REMARK  Name = 
REMARK  5 active torsions:
REMARK  status: ('A' for Active; 'I' for Inactive)
REMARK    1  A    between atoms: C_1  and  C_2
REMARK    2  A    between atoms: C_2  and  C_3
REMARK    3  A    between atoms: C_3  and  C_4
REMARK    4  A    between atoms: N_6  and  C_7
REMARK    5  A    between atoms: C_12  and  C_14
REMARK                            x       y       z     vdW  Elec       q    Type
REMARK                         _______ _______ _______ _____ _____    ______ ____
ROOT
ATOM      1  C   UNL     1     -42.011-160.107 310.598  0.00  0.00    +0.000 C 
ATOM      2  C   UNL     1     -41.066-160.273 311.806  0.00  0.00    +0.000 C 
ATOM      3  C   UNL     1     -39.789-160.948 311.377  0.00  0.00    +0.000 C 
ATOM      4  C   UNL     1     -40.192-162.328 310.931  0.00  0.00    +0.000 C 
ATOM      5  N   UNL     1     -41.176-162.273 309.839  0.00  0.00    +0.000 N 
ATOM      6  C   UNL     1     -40.979-162.654 308.516  0.00  0.00    +0.000 C 
ATOM      7  O   UNL     1     -41.804-162.497 307.639  0.00  0.00    +0.000 OA
ATOM      8  C   UNL     1     -42.382-161.518 310.126  0.00  0.00    +0.000 C 
ENDROOT
BRANCH   6   9
ATOM      9  C   UNL     1     -39.705-163.320 308.188  0.00  0.00    +0.000 A 
ATOM     10  C   UNL     1     -38.700-162.566 307.560  0.00  0.00    +0.000 A 
ATOM     11  C   UNL     1     -37.506-163.173 307.192  0.00  0.00    +0.000 A 
ATOM     12  C   UNL     1     -37.305-164.511 307.505  0.00  0.00    +0.000 A 
ATOM     13  F   UNL     1     -36.147-165.091 307.164  0.00  0.00    +0.000 F 
ATOM     14  C   UNL     1     -38.276-165.258 308.164  0.00  0.00    +0.000 A 
ATOM     15  C   UNL     1     -39.492-164.665 308.504  0.00  0.00    +0.000 A 
ATOM     16 CL   UNL     1     -40.686-165.655 309.262  0.00  0.00    +0.000 Cl
ENDBRANCH   6   9
BRANCH   1  19
ATOM     17  C   UNL     1     -42.050-158.336 308.707  0.00  0.00    +0.000 C 
ATOM     18  O   UNL     1     -41.339-157.655 307.964  0.00  0.00    +0.000 OA
ATOM     19  N   UNL     1     -41.448-159.240 309.544  0.00  0.00    +0.000 N 
ATOM     20  H   UNL     1     -40.454-159.340 309.343  0.00  0.00    +0.000 HD
BRANCH  17  21
ATOM     21  C   UNL     1     -43.558-158.100 308.734  0.00  0.00    +0.000 C 
BRANCH  21  23
ATOM     22  C   UNL     1     -44.080-155.559 308.075  0.00  0.00    +0.000 C 
ATOM     23  C   UNL     1     -44.124-157.048 307.745  0.00  0.00    +0.000 C 
ENDBRANCH  21  23
ENDBRANCH  17  21
ENDBRANCH   1  19
TORSDOF 4
ENDMDL
MODEL 5
REMARK VINA RESULT:    -6.966      4.407      6.058
REMARK INTER + INTRA:          -9.384
REMARK INTER:                  -9.333
REMARK INTRA:                  -0.051
REMARK UNBOUND:                -0.790
REMARK  Name = 
REMARK  5 active torsions:
REMARK  status: ('A' for Active; 'I' for Inactive)
REMARK    1  A    between atoms: C_1  and  C_2
REMARK    2  A    between atoms: C_2  and  C_3
REMARK    3  A    between atoms: C_3  and  C_4
REMARK    4  A    between atoms: N_6  and  C_7
REMARK    5  A    between atoms: C_12  and  C_14
REMARK                            x       y       z     vdW  Elec       q    Type
REMARK                         _______ _______ _______ _____ _____    ______ ____
ROOT
ATOM      1  C   UNL     1     -40.839-160.615 309.593  0.00  0.00    +0.000 C 
ATOM      2  C   UNL     1     -42.234-161.273 309.580  0.00  0.00    +0.000 C 
ATOM      3  C   UNL     1     -42.111-162.741 309.263  0.00  0.00    +0.000 C 
ATOM      4  C   UNL     1     -41.572-162.808 307.860  0.00  0.00    +0.000 C 
ATOM      5  N   UNL     1     -40.279-162.114 307.748  0.00  0.00    +0.000 N 
ATOM      6  C   UNL     1     -39.037-162.693 307.516  0.00  0.00    +0.000 C 
ATOM      7  O   UNL     1     -37.992-162.075 307.527  0.00  0.00    +0.000 OA
ATOM      8  C   UNL     1     -40.281-160.724 308.170  0.00  0.00    +0.000 C 
ENDROOT
BRANCH   6   9
ATOM      9  C   UNL     1     -39.013-164.133 307.199  0.00  0.00    +0.000 A 
ATOM     10  C   UNL     1     -38.666-164.524 305.895  0.00  0.00    +0.000 A 
ATOM     11  C   UNL     1     -38.682-165.868 305.548  0.00  0.00    +0.000 A 
ATOM     12  C   UNL     1     -38.987-166.813 306.518  0.00  0.00    +0.000 A 
ATOM     13  F   UNL     1     -38.985-168.110 306.187  0.00  0.00    +0.000 F 
ATOM     14  C   UNL     1     -39.291-166.441 307.824  0.00  0.00    +0.000 A 
ATOM     15  C   UNL     1     -39.313-165.091 308.171  0.00  0.00    +0.000 A 
ATOM     16 CL   UNL     1     -39.759-164.683 309.789  0.00  0.00    +0.000 Cl
ENDBRANCH   6   9
BRANCH   1  19
ATOM     17  C   UNL     1     -39.934-160.966 311.996  0.00  0.00    +0.000 C 
ATOM     18  O   UNL     1     -39.144-161.624 312.678  0.00  0.00    +0.000 OA
ATOM     19  N   UNL     1     -39.955-161.166 310.640  0.00  0.00    +0.000 N 
ATOM     20  H   UNL     1     -39.186-161.759 310.332  0.00  0.00    +0.000 HD
BRANCH  17  21
ATOM     21  C   UNL     1     -40.914-160.017 312.681  0.00  0.00    +0.000 C 
BRANCH  21  23
ATOM     22  C   UNL     1     -41.935-157.706 311.797  0.00  0.00    +0.000 C 
ATOM     23  C   UNL     1     -40.767-158.505 312.366  0.00  0.00    +0.000 C 
ENDBRANCH  21  23
ENDBRANCH  17  21
ENDBRANCH   1  19
TORSDOF 4
ENDMDL
MODEL 6
REMARK VINA RESULT:    -6.920      2.383      3.691
REMARK INTER + INTRA:          -9.328
REMARK INTER:                  -8.587
REMARK INTRA:                  -0.741
REMARK UNBOUND:                -0.790
REMARK  Name = 
REMARK  5 active torsions:
REMARK  status: ('A' for Active; 'I' for Inactive)
REMARK    1  A    between atoms: C_1  and  C_2
REMARK    2  A    between atoms: C_2  and  C_3
REMARK    3  A    between atoms: C_3  and  C_4
REMARK    4  A    between atoms: N_6  and  C_7
REMARK    5  A    between atoms: C_12  and  C_14
REMARK                            x       y       z     vdW  Elec       q    Type
REMARK                         _______ _______ _______ _____ _____    ______ ____
ROOT
ATOM      1  C   UNL     1     -41.895-159.264 311.357  0.00  0.00    +0.000 C 
ATOM      2  C   UNL     1     -40.720-159.490 312.331  0.00  0.00    +0.000 C 
ATOM      3  C   UNL     1     -39.822-160.584 311.814  0.00  0.00    +0.000 C 
ATOM      4  C   UNL     1     -40.661-161.834 311.827  0.00  0.00    +0.000 C 
ATOM      5  N   UNL     1     -41.867-161.680 311.000  0.00  0.00    +0.000 N 
ATOM      6  C   UNL     1     -42.150-162.331 309.803  0.00  0.00    +0.000 C 
ATOM      7  O   UNL     1     -43.123-162.091 309.118  0.00  0.00    +0.000 OA
ATOM      8  C   UNL     1     -42.719-160.556 311.347  0.00  0.00    +0.000 C 
ENDROOT
BRANCH   6   9
ATOM      9  C   UNL     1     -41.224-163.398 309.382  0.00  0.00    +0.000 A 
ATOM     10  C   UNL     1     -41.487-164.713 309.802  0.00  0.00    +0.000 A 
ATOM     11  C   UNL     1     -40.609-165.735 309.466  0.00  0.00    +0.000 A 
ATOM     12  C   UNL     1     -39.511-165.447 308.667  0.00  0.00    +0.000 A 
ATOM     13  F   UNL     1     -38.674-166.437 308.329  0.00  0.00    +0.000 F 
ATOM     14  C   UNL     1     -39.263-164.156 308.209  0.00  0.00    +0.000 A 
ATOM     15  C   UNL     1     -40.120-163.118 308.573  0.00  0.00    +0.000 A 
ATOM     16 CL   UNL     1     -39.729-161.526 308.031  0.00  0.00    +0.000 Cl
ENDBRANCH   6   9
BRANCH   1  19
ATOM     17  C   UNL     1     -42.147-158.202 309.007  0.00  0.00    +0.000 C 
ATOM     18  O   UNL     1     -41.525-157.829 308.009  0.00  0.00    +0.000 OA
ATOM     19  N   UNL     1     -41.455-158.809 310.023  0.00  0.00    +0.000 N 
ATOM     20  H   UNL     1     -40.492-159.010 309.760  0.00  0.00    +0.000 HD
BRANCH  17  21
ATOM     21  C   UNL     1     -43.641-157.909 309.119  0.00  0.00    +0.000 C 
BRANCH  21  23
ATOM     22  C   UNL     1     -44.255-155.570 307.971  0.00  0.00    +0.000 C 
ATOM     23  C   UNL     1     -44.287-157.096 307.967  0.00  0.00    +0.000 C 
ENDBRANCH  21  23
ENDBRANCH  17  21
ENDBRANCH   1  19
TORSDOF 4
ENDMDL
MODEL 7
REMARK VINA RESULT:    -6.859      4.879      6.857
REMARK INTER + INTRA:          -9.252
REMARK INTER:                  -8.658
REMARK INTRA:                  -0.594
REMARK UNBOUND:                -0.790
REMARK  Name = 
REMARK  5 active torsions:
REMARK  status: ('A' for Active; 'I' for Inactive)
REMARK    1  A    between atoms: C_1  and  C_2
REMARK    2  A    between atoms: C_2  and  C_3
REMARK    3  A    between atoms: C_3  and  C_4
REMARK    4  A    between atoms: N_6  and  C_7
REMARK    5  A    between atoms: C_12  and  C_14
REMARK                            x       y       z     vdW  Elec       q    Type
REMARK                         _______ _______ _______ _____ _____    ______ ____
ROOT
ATOM      1  C   UNL     1     -40.166-163.890 309.024  0.00  0.00    +0.000 C 
ATOM      2  C   UNL     1     -41.653-163.828 308.619  0.00  0.00    +0.000 C 
ATOM      3  C   UNL     1     -42.249-162.509 309.036  0.00  0.00    +0.000 C 
ATOM      4  C   UNL     1     -42.194-162.498 310.540  0.00  0.00    +0.000 C 
ATOM      5  N   UNL     1     -40.816-162.654 311.028  0.00  0.00    +0.000 N 
ATOM      6  C   UNL     1     -40.046-161.697 311.682  0.00  0.00    +0.000 C 
ATOM      7  O   UNL     1     -38.880-161.856 311.977  0.00  0.00    +0.000 OA
ATOM      8  C   UNL     1     -40.119-163.837 310.555  0.00  0.00    +0.000 C 
ENDROOT
BRANCH   6   9
ATOM      9  C   UNL     1     -40.716-160.440 312.065  0.00  0.00    +0.000 A 
ATOM     10  C   UNL     1     -40.563-159.321 311.229  0.00  0.00    +0.000 A 
ATOM     11  C   UNL     1     -41.137-158.108 311.585  0.00  0.00    +0.000 A 
ATOM     12  C   UNL     1     -41.907-158.037 312.738  0.00  0.00    +0.000 A 
ATOM     13  F   UNL     1     -42.475-156.871 313.071  0.00  0.00    +0.000 F 
ATOM     14  C   UNL     1     -42.101-159.149 313.552  0.00  0.00    +0.000 A 
ATOM     15  C   UNL     1     -41.497-160.362 313.221  0.00  0.00    +0.000 A 
ATOM     16 CL   UNL     1     -41.719-161.692 314.299  0.00  0.00    +0.000 Cl
ENDBRANCH   6   9
BRANCH   1  19
ATOM     17  C   UNL     1     -38.319-162.980 307.451  0.00  0.00    +0.000 C 
ATOM     18  O   UNL     1     -37.847-161.953 306.956  0.00  0.00    +0.000 OA
ATOM     19  N   UNL     1     -39.345-162.862 308.352  0.00  0.00    +0.000 N 
ATOM     20  H   UNL     1     -39.507-161.892 308.618  0.00  0.00    +0.000 HD
BRANCH  17  21
ATOM     21  C   UNL     1     -37.808-164.343 306.991  0.00  0.00    +0.000 C 
BRANCH  21  23
ATOM     22  C   UNL     1     -38.429-166.609 305.708  0.00  0.00    +0.000 C 
ATOM     23  C   UNL     1     -38.716-165.143 306.020  0.00  0.00    +0.000 C 
ENDBRANCH  21  23
ENDBRANCH  17  21
ENDBRANCH   1  19
TORSDOF 4
ENDMDL
MODEL 8
REMARK VINA RESULT:    -6.848      5.693      8.494
REMARK INTER + INTRA:          -9.239
REMARK INTER:                  -8.826
REMARK INTRA:                  -0.413
REMARK UNBOUND:                -0.790
REMARK  Name = 
REMARK  5 active torsions:
REMARK  status: ('A' for Active; 'I' for Inactive)
REMARK    1  A    between atoms: C_1  and  C_2
REMARK    2  A    between atoms: C_2  and  C_3
REMARK    3  A    between atoms: C_3  and  C_4
REMARK    4  A    between atoms: N_6  and  C_7
REMARK    5  A    between atoms: C_12  and  C_14
REMARK                            x       y       z     vdW  Elec       q    Type
REMARK                         _______ _______ _______ _____ _____    ______ ____
ROOT
ATOM      1  C   UNL     1     -37.806-165.148 306.846  0.00  0.00    +0.000 C 
ATOM      2  C   UNL     1     -37.368-163.780 306.285  0.00  0.00    +0.000 C 
ATOM      3  C   UNL     1     -37.623-162.697 307.300  0.00  0.00    +0.000 C 
ATOM      4  C   UNL     1     -39.118-162.652 307.476  0.00  0.00    +0.000 C 
ATOM      5  N   UNL     1     -39.646-163.952 307.917  0.00  0.00    +0.000 N 
ATOM      6  C   UNL     1     -40.202-164.252 309.156  0.00  0.00    +0.000 C 
ATOM      7  O   UNL     1     -40.536-165.369 309.493  0.00  0.00    +0.000 OA
ATOM      8  C   UNL     1     -39.322-165.078 307.059  0.00  0.00    +0.000 C 
ENDROOT
BRANCH   6   9
ATOM      9  C   UNL     1     -40.429-163.128 310.083  0.00  0.00    +0.000 A 
ATOM     10  C   UNL     1     -39.337-162.641 310.821  0.00  0.00    +0.000 A 
ATOM     11  C   UNL     1     -39.524-161.617 311.740  0.00  0.00    +0.000 A 
ATOM     12  C   UNL     1     -40.785-161.050 311.872  0.00  0.00    +0.000 A 
ATOM     13  F   UNL     1     -40.961-160.051 312.747  0.00  0.00    +0.000 F 
ATOM     14  C   UNL     1     -41.866-161.496 311.117  0.00  0.00    +0.000 A 
ATOM     15  C   UNL     1     -41.694-162.548 310.219  0.00  0.00    +0.000 A 
ATOM     16 CL   UNL     1     -43.082-163.104 309.355  0.00  0.00    +0.000 Cl
ENDBRANCH   6   9
BRANCH   1  19
ATOM     17  C   UNL     1     -35.862-166.243 308.165  0.00  0.00    +0.000 C 
ATOM     18  O   UNL     1     -35.368-166.373 309.287  0.00  0.00    +0.000 OA
ATOM     19  N   UNL     1     -37.038-165.549 308.042  0.00  0.00    +0.000 N 
ATOM     20  H   UNL     1     -37.449-165.335 308.949  0.00  0.00    +0.000 HD
BRANCH  17  21
ATOM     21  C   UNL     1     -35.118-166.780 306.944  0.00  0.00    +0.000 C 
BRANCH  21  23
ATOM     22  C   UNL     1     -32.977-165.332 307.639  0.00  0.00    +0.000 C 
ATOM     23  C   UNL     1     -33.769-166.102 306.587  0.00  0.00    +0.000 C 
ENDBRANCH  21  23
ENDBRANCH  17  21
ENDBRANCH   1  19
TORSDOF 4
ENDMDL
MODEL 9
REMARK VINA RESULT:    -6.536      2.021      2.663
REMARK INTER + INTRA:          -8.854
REMARK INTER:                 -10.891
REMARK INTRA:                   2.037
REMARK UNBOUND:                -0.790
REMARK  Name = 
REMARK  5 active torsions:
REMARK  status: ('A' for Active; 'I' for Inactive)
REMARK    1  A    between atoms: C_1  and  C_2
REMARK    2  A    between atoms: C_2  and  C_3
REMARK    3  A    between atoms: C_3  and  C_4
REMARK    4  A    between atoms: N_6  and  C_7
REMARK    5  A    between atoms: C_12  and  C_14
REMARK                            x       y       z     vdW  Elec       q    Type
REMARK                         _______ _______ _______ _____ _____    ______ ____
ROOT
ATOM      1  C   UNL     1     -43.903-156.455 306.989  0.00  0.00    +0.000 C 
ATOM      2  C   UNL     1     -43.153-156.708 305.665  0.00  0.00    +0.000 C 
ATOM      3  C   UNL     1     -42.417-158.021 305.730  0.00  0.00    +0.000 C 
ATOM      4  C   UNL     1     -41.379-157.850 306.807  0.00  0.00    +0.000 C 
ATOM      5  N   UNL     1     -41.996-157.504 308.097  0.00  0.00    +0.000 N 
ATOM      6  C   UNL     1     -42.050-158.298 309.237  0.00  0.00    +0.000 C 
ATOM      7  O   UNL     1     -42.656-157.992 310.244  0.00  0.00    +0.000 OA
ATOM      8  C   UNL     1     -42.840-156.322 308.085  0.00  0.00    +0.000 C 
ENDROOT
BRANCH   6   9
ATOM      9  C   UNL     1     -41.288-159.560 309.217  0.00  0.00    +0.000 A 
ATOM     10  C   UNL     1     -40.944-160.112 307.972  0.00  0.00    +0.000 A 
ATOM     11  C   UNL     1     -40.271-161.324 307.914  0.00  0.00    +0.000 A 
ATOM     12  C   UNL     1     -39.896-161.946 309.098  0.00  0.00    +0.000 A 
ATOM     13  F   UNL     1     -39.232-163.107 309.041  0.00  0.00    +0.000 F 
ATOM     14  C   UNL     1     -40.194-161.389 310.338  0.00  0.00    +0.000 A 
ATOM     15  C   UNL     1     -40.903-160.189 310.404  0.00  0.00    +0.000 A 
ATOM     16 CL   UNL     1     -41.301-159.576 311.968  0.00  0.00    +0.000 Cl
ENDBRANCH   6   9
BRANCH   1  19
ATOM     17  C   UNL     1     -45.856-158.065 306.436  0.00  0.00    +0.000 C 
ATOM     18  O   UNL     1     -46.566-158.965 306.891  0.00  0.00    +0.000 OA
ATOM     19  N   UNL     1     -44.940-157.469 307.264  0.00  0.00    +0.000 N 
ATOM     20  H   UNL     1     -45.058-157.761 308.232  0.00  0.00    +0.000 HD
BRANCH  17  21
ATOM     21  C   UNL     1     -45.958-157.697 304.958  0.00  0.00    +0.000 C 
BRANCH  21  23
ATOM     22  C   UNL     1     -48.264-158.972 304.487  0.00  0.00    +0.000 C 
ATOM     23  C   UNL     1     -46.845-158.605 304.066  0.00  0.00    +0.000 C 
ENDBRANCH  21  23
ENDBRANCH  17  21
ENDBRANCH   1  19
TORSDOF 4
ENDMDL
MODEL 10
REMARK VINA RESULT:    -6.459      1.765      2.169
REMARK INTER + INTRA:          -8.758
REMARK INTER:                  -9.381
REMARK INTRA:                   0.623
REMARK UNBOUND:                -0.790
REMARK  Name = 
REMARK  5 active torsions:
REMARK  status: ('A' for Active; 'I' for Inactive)
REMARK    1  A    between atoms: C_1  and  C_2
REMARK    2  A    between atoms: C_2  and  C_3
REMARK    3  A    between atoms: C_3  and  C_4
REMARK    4  A    between atoms: N_6  and  C_7
REMARK    5  A    between atoms: C_12  and  C_14
REMARK                            x       y       z     vdW  Elec       q    Type
REMARK                         _______ _______ _______ _____ _____    ______ ____
ROOT
ATOM      1  C   UNL     1     -42.868-156.421 305.935  0.00  0.00    +0.000 C 
ATOM      2  C   UNL     1     -41.594-156.842 305.174  0.00  0.00    +0.000 C 
ATOM      3  C   UNL     1     -41.068-158.142 305.723  0.00  0.00    +0.000 C 
ATOM      4  C   UNL     1     -40.664-157.848 307.143  0.00  0.00    +0.000 C 
ATOM      5  N   UNL     1     -41.799-157.340 307.929  0.00  0.00    +0.000 N 
ATOM      6  C   UNL     1     -42.447-157.987 308.977  0.00  0.00    +0.000 C 
ATOM      7  O   UNL     1     -43.439-157.555 309.526  0.00  0.00    +0.000 OA
ATOM      8  C   UNL     1     -42.454-156.162 307.388  0.00  0.00    +0.000 C 
ENDROOT
BRANCH   6   9
ATOM      9  C   UNL     1     -41.854-159.248 309.459  0.00  0.00    +0.000 A 
ATOM     10  C   UNL     1     -41.801-160.341 308.578  0.00  0.00    +0.000 A 
ATOM     11  C   UNL     1     -41.296-161.558 309.014  0.00  0.00    +0.000 A 
ATOM     12  C   UNL     1     -40.796-161.658 310.305  0.00  0.00    +0.000 A 
ATOM     13  F   UNL     1     -40.293-162.828 310.720  0.00  0.00    +0.000 F 
ATOM     14  C   UNL     1     -40.804-160.572 311.175  0.00  0.00    +0.000 A 
ATOM     15  C   UNL     1     -41.343-159.356 310.756  0.00  0.00    +0.000 A 
ATOM     16 CL   UNL     1     -41.386-158.059 311.896  0.00  0.00    +0.000 Cl
ENDBRANCH   6   9
BRANCH   1  19
ATOM     17  C   UNL     1     -45.334-157.203 305.789  0.00  0.00    +0.000 C 
ATOM     18  O   UNL     1     -46.060-158.168 305.539  0.00  0.00    +0.000 OA
ATOM     19  N   UNL     1     -43.975-157.385 305.777  0.00  0.00    +0.000 N 
ATOM     20  H   UNL     1     -43.724-158.369 305.695  0.00  0.00    +0.000 HD
BRANCH  17  21
ATOM     21  C   UNL     1     -45.956-155.829 306.022  0.00  0.00    +0.000 C 
BRANCH  21  23
ATOM     22  C   UNL     1     -44.679-154.454 304.112  0.00  0.00    +0.000 C 
ATOM     23  C   UNL     1     -45.134-154.596 305.562  0.00  0.00    +0.000 C 
ENDBRANCH  21  23
ENDBRANCH  17  21
ENDBRANCH   1  19
TORSDOF 4
ENDMDL
