MODEL 1
REMARK VINA RESULT:    -9.013      0.000      0.000
REMARK INTER + INTRA:         -11.020
REMARK INTER:                 -11.121
REMARK INTRA:                   0.102
REMARK UNBOUND:                 0.102
REMARK  Name = 
REMARK  7 active torsions:
REMARK  status: ('A' for Active; 'I' for Inactive)
REMARK    1  A    between atoms: C_1  and  C_2
REMARK    2  A    between atoms: C_2  and  C_3
REMARK    3  A    between atoms: C_3  and  C_4
REMARK    4  A    between atoms: C_3  and  C_5
REMARK    5  A    between atoms: C_3  and  C_6
REMARK    6  A    between atoms: C_14  and  C_15
REMARK    7  A    between atoms: C_15  and  N_16
REMARK                            x       y       z     vdW  Elec       q    Type
REMARK                         _______ _______ _______ _____ _____    ______ ____
ROOT
ATOM      1  C   UNL     1     -42.675-156.800 306.087  0.00  0.00    +0.000 C 
ATOM      2  O   UNL     1     -42.343-157.014 304.931  0.00  0.00    +0.000 OA
ATOM      3  N   UNL     1     -42.499-157.783 307.054  0.00  0.00    +0.000 N 
ATOM      4  C   UNL     1     -41.299-158.602 307.020  0.00  0.00    +0.000 C 
ATOM      5  C   UNL     1     -40.660-158.563 308.419  0.00  0.00    +0.000 C 
ATOM      6  C   UNL     1     -41.636-158.891 309.597  0.00  0.00    +0.000 C 
ATOM      7  C   UNL     1     -40.948-158.702 310.955  0.00  0.00    +0.000 C 
ATOM      8  C   UNL     1     -40.935-160.097 311.598  0.00  0.00    +0.000 C 
ATOM      9  C   UNL     1     -41.046-161.009 310.399  0.00  0.00    +0.000 C 
ATOM     10  O   UNL     1     -42.034-160.269 309.662  0.00  0.00    +0.000 OA
ATOM     11  C   UNL     1     -42.933-158.085 309.435  0.00  0.00    +0.000 C 
ATOM     12  C   UNL     1     -43.487-158.244 308.018  0.00  0.00    +0.000 C 
ENDROOT
BRANCH   1  13
ATOM     13  C   UNL     1     -43.116-155.373 306.568  0.00  0.00    +0.000 C 
ATOM     14  C   UNL     1     -42.113-154.830 307.604  0.00  0.00    +0.000 C 
ATOM     15  C   UNL     1     -44.517-155.379 307.191  0.00  0.00    +0.000 C 
BRANCH  13  17
ATOM     16  C   UNL     1     -44.459-154.374 304.564  0.00  0.00    +0.000 C 
ATOM     17  C   UNL     1     -43.161-154.369 305.373  0.00  0.00    +0.000 C 
ENDBRANCH  13  17
ENDBRANCH   1  13
BRANCH   9  18
ATOM     18  C   UNL     1     -41.473-162.478 310.666  0.00  0.00    +0.000 C 
BRANCH  18  19
ATOM     19  N   UNL     1     -41.619-163.435 309.536  0.00  0.00    +0.000 NA
ATOM     20  C   UNL     1     -41.293-162.795 308.246  0.00  0.00    +0.000 C 
ATOM     21  C   UNL     1     -39.799-162.864 307.907  0.00  0.00    +0.000 C 
ATOM     22  O   UNL     1     -39.291-164.196 307.885  0.00  0.00    +0.000 OA
ATOM     23  C   UNL     1     -39.442-164.750 309.207  0.00  0.00    +0.000 C 
ATOM     24  C   UNL     1     -40.932-164.748 309.597  0.00  0.00    +0.000 C 
ENDBRANCH  18  19
ENDBRANCH   9  18
TORSDOF 4
ENDMDL
MODEL 2
REMARK VINA RESULT:    -8.210      3.769      5.995
REMARK INTER + INTRA:         -10.028
REMARK INTER:                  -9.658
REMARK INTRA:                  -0.370
REMARK UNBOUND:                 0.102
REMARK  Name = 
REMARK  7 active torsions:
REMARK  status: ('A' for Active; 'I' for Inactive)
REMARK    1  A    between atoms: C_1  and  C_2
REMARK    2  A    between atoms: C_2  and  C_3
REMARK    3  A    between atoms: C_3  and  C_4
REMARK    4  A    between atoms: C_3  and  C_5
REMARK    5  A    between atoms: C_3  and  C_6
REMARK    6  A    between atoms: C_14  and  C_15
REMARK    7  A    between atoms: C_15  and  N_16
REMARK                            x       y       z     vdW  Elec       q    Type
REMARK                         _______ _______ _______ _____ _____    ______ ____
ROOT
ATOM      1  C   UNL     1     -41.761-160.700 312.925  0.00  0.00    +0.000 C 
ATOM      2  O   UNL     1     -42.041-161.210 313.999  0.00  0.00    +0.000 OA
ATOM      3  N   UNL     1     -41.090-161.440 311.958  0.00  0.00    +0.000 N 
ATOM      4  C   UNL     1     -41.431-162.840 311.776  0.00  0.00    +0.000 C 
ATOM      5  C   UNL     1     -41.710-163.069 310.280  0.00  0.00    +0.000 C 
ATOM      6  C   UNL     1     -40.596-162.540 309.315  0.00  0.00    +0.000 C 
ATOM      7  C   UNL     1     -41.017-162.693 307.848  0.00  0.00    +0.000 C 
ATOM      8  C   UNL     1     -40.003-163.671 307.238  0.00  0.00    +0.000 C 
ATOM      9  C   UNL     1     -39.501-164.419 308.451  0.00  0.00    +0.000 C 
ATOM     10  O   UNL     1     -39.381-163.304 309.350  0.00  0.00    +0.000 OA
ATOM     11  C   UNL     1     -40.206-161.109 309.710  0.00  0.00    +0.000 C 
ATOM     12  C   UNL     1     -39.912-161.029 311.208  0.00  0.00    +0.000 C 
ENDROOT
BRANCH   1  13
ATOM     13  C   UNL     1     -42.311-159.289 312.514  0.00  0.00    +0.000 C 
ATOM     14  C   UNL     1     -41.181-158.243 312.571  0.00  0.00    +0.000 C 
ATOM     15  C   UNL     1     -43.459-158.828 313.422  0.00  0.00    +0.000 C 
BRANCH  13  17
ATOM     16  C   UNL     1     -42.378-158.183 310.151  0.00  0.00    +0.000 C 
ATOM     17  C   UNL     1     -42.873-159.310 311.058  0.00  0.00    +0.000 C 
ENDBRANCH  13  17
ENDBRANCH   1  13
BRANCH   9  18
ATOM     18  C   UNL     1     -38.173-165.208 308.293  0.00  0.00    +0.000 C 
BRANCH  18  19
ATOM     19  N   UNL     1     -37.460-165.225 306.988  0.00  0.00    +0.000 NA
ATOM     20  C   UNL     1     -36.015-164.976 307.162  0.00  0.00    +0.000 C 
ATOM     21  C   UNL     1     -35.219-166.258 307.437  0.00  0.00    +0.000 C 
ATOM     22  O   UNL     1     -35.382-167.246 306.421  0.00  0.00    +0.000 OA
ATOM     23  C   UNL     1     -36.773-167.622 306.387  0.00  0.00    +0.000 C 
ATOM     24  C   UNL     1     -37.632-166.382 306.076  0.00  0.00    +0.000 C 
ENDBRANCH  18  19
ENDBRANCH   9  18
TORSDOF 4
ENDMDL
MODEL 3
REMARK VINA RESULT:    -7.904      2.295      3.338
REMARK INTER + INTRA:          -9.651
REMARK INTER:                 -10.007
REMARK INTRA:                   0.356
REMARK UNBOUND:                 0.102
REMARK  Name = 
REMARK  7 active torsions:
REMARK  status: ('A' for Active; 'I' for Inactive)
REMARK    1  A    between atoms: C_1  and  C_2
REMARK    2  A    between atoms: C_2  and  C_3
REMARK    3  A    between atoms: C_3  and  C_4
REMARK    4  A    between atoms: C_3  and  C_5
REMARK    5  A    between atoms: C_3  and  C_6
REMARK    6  A    between atoms: C_14  and  C_15
REMARK    7  A    between atoms: C_15  and  N_16
REMARK                            x       y       z     vdW  Elec       q    Type
REMARK                         _______ _______ _______ _____ _____    ______ ____
ROOT
ATOM      1  C   UNL     1     -44.719-154.924 306.426  0.00  0.00    +0.000 C 
ATOM      2  O   UNL     1     -45.830-154.591 306.810  0.00  0.00    +0.000 OA
ATOM      3  N   UNL     1     -43.901-155.693 307.247  0.00  0.00    +0.000 N 
ATOM      4  C   UNL     1     -44.496-156.752 308.044  0.00  0.00    +0.000 C 
ATOM      5  C   UNL     1     -43.702-158.044 307.783  0.00  0.00    +0.000 C 
ATOM      6  C   UNL     1     -42.151-157.905 307.941  0.00  0.00    +0.000 C 
ATOM      7  C   UNL     1     -41.436-159.200 307.537  0.00  0.00    +0.000 C 
ATOM      8  C   UNL     1     -40.747-159.696 308.816  0.00  0.00    +0.000 C 
ATOM      9  C   UNL     1     -41.564-159.038 309.903  0.00  0.00    +0.000 C 
ATOM     10  O   UNL     1     -41.713-157.742 309.298  0.00  0.00    +0.000 OA
ATOM     11  C   UNL     1     -41.664-156.659 307.187  0.00  0.00    +0.000 C 
ATOM     12  C   UNL     1     -42.505-155.441 307.569  0.00  0.00    +0.000 C 
ENDROOT
BRANCH   1  13
ATOM     13  C   UNL     1     -44.250-154.682 304.948  0.00  0.00    +0.000 C 
ATOM     14  C   UNL     1     -42.832-154.077 304.935  0.00  0.00    +0.000 C 
ATOM     15  C   UNL     1     -45.195-153.744 304.186  0.00  0.00    +0.000 C 
BRANCH  13  17
ATOM     16  C   UNL     1     -45.249-157.062 304.560  0.00  0.00    +0.000 C 
ATOM     17  C   UNL     1     -44.207-156.022 304.149  0.00  0.00    +0.000 C 
ENDBRANCH  13  17
ENDBRANCH   1  13
BRANCH   9  18
ATOM     18  C   UNL     1     -40.932-158.970 311.319  0.00  0.00    +0.000 C 
BRANCH  18  19
ATOM     19  N   UNL     1     -41.080-160.110 312.263  0.00  0.00    +0.000 NA
ATOM     20  C   UNL     1     -42.312-160.876 311.990  0.00  0.00    +0.000 C 
ATOM     21  C   UNL     1     -42.110-161.974 310.938  0.00  0.00    +0.000 C 
ATOM     22  O   UNL     1     -41.079-162.897 311.284  0.00  0.00    +0.000 OA
ATOM     23  C   UNL     1     -39.839-162.167 311.364  0.00  0.00    +0.000 C 
ATOM     24  C   UNL     1     -39.959-161.067 312.435  0.00  0.00    +0.000 C 
ENDBRANCH  18  19
ENDBRANCH   9  18
TORSDOF 4
ENDMDL
MODEL 4
REMARK VINA RESULT:    -7.790      2.485      7.851
REMARK INTER + INTRA:          -9.511
REMARK INTER:                  -9.221
REMARK INTRA:                  -0.290
REMARK UNBOUND:                 0.102
REMARK  Name = 
REMARK  7 active torsions:
REMARK  status: ('A' for Active; 'I' for Inactive)
REMARK    1  A    between atoms: C_1  and  C_2
REMARK    2  A    between atoms: C_2  and  C_3
REMARK    3  A    between atoms: C_3  and  C_4
REMARK    4  A    between atoms: C_3  and  C_5
REMARK    5  A    between atoms: C_3  and  C_6
REMARK    6  A    between atoms: C_14  and  C_15
REMARK    7  A    between atoms: C_15  and  N_16
REMARK                            x       y       z     vdW  Elec       q    Type
REMARK                         _______ _______ _______ _____ _____    ______ ____
ROOT
ATOM      1  C   UNL     1     -42.562-160.583 313.027  0.00  0.00    +0.000 C 
ATOM      2  O   UNL     1     -43.219-160.086 313.928  0.00  0.00    +0.000 OA
ATOM      3  N   UNL     1     -42.686-160.101 311.728  0.00  0.00    +0.000 N 
ATOM      4  C   UNL     1     -42.828-158.672 311.516  0.00  0.00    +0.000 C 
ATOM      5  C   UNL     1     -41.780-158.240 310.476  0.00  0.00    +0.000 C 
ATOM      6  C   UNL     1     -41.765-159.093 309.164  0.00  0.00    +0.000 C 
ATOM      7  C   UNL     1     -40.609-158.678 308.246  0.00  0.00    +0.000 C 
ATOM      8  C   UNL     1     -41.278-158.140 306.973  0.00  0.00    +0.000 C 
ATOM      9  C   UNL     1     -42.650-157.746 307.468  0.00  0.00    +0.000 C 
ATOM     10  O   UNL     1     -42.902-158.880 308.314  0.00  0.00    +0.000 OA
ATOM     11  C   UNL     1     -41.778-160.587 309.518  0.00  0.00    +0.000 C 
ATOM     12  C   UNL     1     -42.891-160.889 310.522  0.00  0.00    +0.000 C 
ENDROOT
BRANCH   1  13
ATOM     13  C   UNL     1     -41.424-161.625 313.314  0.00  0.00    +0.000 C 
ATOM     14  C   UNL     1     -41.664-162.910 312.498  0.00  0.00    +0.000 C 
ATOM     15  C   UNL     1     -41.337-161.992 314.801  0.00  0.00    +0.000 C 
BRANCH  13  17
ATOM     16  C   UNL     1     -39.358-161.746 311.724  0.00  0.00    +0.000 C 
ATOM     17  C   UNL     1     -40.028-161.054 312.910  0.00  0.00    +0.000 C 
ENDBRANCH  13  17
ENDBRANCH   1  13
BRANCH   9  18
ATOM     18  C   UNL     1     -43.755-157.539 306.396  0.00  0.00    +0.000 C 
BRANCH  18  19
ATOM     19  N   UNL     1     -44.522-156.266 306.345  0.00  0.00    +0.000 NA
ATOM     20  C   UNL     1     -43.799-155.176 307.030  0.00  0.00    +0.000 C 
ATOM     21  C   UNL     1     -42.818-154.441 306.108  0.00  0.00    +0.000 C 
ATOM     22  O   UNL     1     -43.441-153.900 304.945  0.00  0.00    +0.000 OA
ATOM     23  C   UNL     1     -43.983-154.997 304.183  0.00  0.00    +0.000 C 
ATOM     24  C   UNL     1     -45.011-155.759 305.040  0.00  0.00    +0.000 C 
ENDBRANCH  18  19
ENDBRANCH   9  18
TORSDOF 4
ENDMDL
MODEL 5
REMARK VINA RESULT:    -7.699      2.301      7.760
REMARK INTER + INTRA:          -9.398
REMARK INTER:                  -9.207
REMARK INTRA:                  -0.191
REMARK UNBOUND:                 0.102
REMARK  Name = 
REMARK  7 active torsions:
REMARK  status: ('A' for Active; 'I' for Inactive)
REMARK    1  A    between atoms: C_1  and  C_2
REMARK    2  A    between atoms: C_2  and  C_3
REMARK    3  A    between atoms: C_3  and  C_4
REMARK    4  A    between atoms: C_3  and  C_5
REMARK    5  A    between atoms: C_3  and  C_6
REMARK    6  A    between atoms: C_14  and  C_15
REMARK    7  A    between atoms: C_15  and  N_16
REMARK                            x       y       z     vdW  Elec       q    Type
REMARK                         _______ _______ _______ _____ _____    ______ ____
ROOT
ATOM      1  C   UNL     1     -42.464-160.637 312.398  0.00  0.00    +0.000 C 
ATOM      2  O   UNL     1     -43.209-160.173 313.248  0.00  0.00    +0.000 OA
ATOM      3  N   UNL     1     -42.482-160.127 311.105  0.00  0.00    +0.000 N 
ATOM      4  C   UNL     1     -42.633-158.695 310.912  0.00  0.00    +0.000 C 
ATOM      5  C   UNL     1     -41.505-158.220 309.980  0.00  0.00    +0.000 C 
ATOM      6  C   UNL     1     -41.357-159.042 308.656  0.00  0.00    +0.000 C 
ATOM      7  C   UNL     1     -40.132-158.584 307.854  0.00  0.00    +0.000 C 
ATOM      8  C   UNL     1     -40.696-158.028 306.539  0.00  0.00    +0.000 C 
ATOM      9  C   UNL     1     -42.114-157.670 306.918  0.00  0.00    +0.000 C 
ATOM     10  O   UNL     1     -42.418-158.828 307.712  0.00  0.00    +0.000 OA
ATOM     11  C   UNL     1     -41.371-160.544 308.974  0.00  0.00    +0.000 C 
ATOM     12  C   UNL     1     -42.563-160.889 309.868  0.00  0.00    +0.000 C 
ENDROOT
BRANCH   1  13
ATOM     13  C   UNL     1     -41.336-161.665 312.763  0.00  0.00    +0.000 C 
ATOM     14  C   UNL     1     -41.398-162.010 314.263  0.00  0.00    +0.000 C 
ATOM     15  C   UNL     1     -39.936-161.128 312.436  0.00  0.00    +0.000 C 
BRANCH  13  17
ATOM     16  C   UNL     1     -40.417-163.272 310.922  0.00  0.00    +0.000 C 
ATOM     17  C   UNL     1     -41.506-162.992 311.958  0.00  0.00    +0.000 C 
ENDBRANCH  13  17
ENDBRANCH   1  13
BRANCH   9  18
ATOM     18  C   UNL     1     -43.123-157.458 305.756  0.00  0.00    +0.000 C 
BRANCH  18  19
ATOM     19  N   UNL     1     -43.527-156.084 305.356  0.00  0.00    +0.000 NA
ATOM     20  C   UNL     1     -44.886-156.070 304.779  0.00  0.00    +0.000 C 
ATOM     21  C   UNL     1     -45.982-155.916 305.841  0.00  0.00    +0.000 C 
ATOM     22  O   UNL     1     -45.826-154.745 306.640  0.00  0.00    +0.000 OA
ATOM     23  C   UNL     1     -44.575-154.856 307.348  0.00  0.00    +0.000 C 
ATOM     24  C   UNL     1     -43.421-154.976 306.336  0.00  0.00    +0.000 C 
ENDBRANCH  18  19
ENDBRANCH   9  18
TORSDOF 4
ENDMDL
MODEL 6
REMARK VINA RESULT:    -6.612      3.178      5.334
REMARK INTER + INTRA:          -8.056
REMARK INTER:                  -7.659
REMARK INTRA:                  -0.397
REMARK UNBOUND:                 0.102
REMARK  Name = 
REMARK  7 active torsions:
REMARK  status: ('A' for Active; 'I' for Inactive)
REMARK    1  A    between atoms: C_1  and  C_2
REMARK    2  A    between atoms: C_2  and  C_3
REMARK    3  A    between atoms: C_3  and  C_4
REMARK    4  A    between atoms: C_3  and  C_5
REMARK    5  A    between atoms: C_3  and  C_6
REMARK    6  A    between atoms: C_14  and  C_15
REMARK    7  A    between atoms: C_15  and  N_16
REMARK                            x       y       z     vdW  Elec       q    Type
REMARK                         _______ _______ _______ _____ _____    ______ ____
ROOT
ATOM      1  C   UNL     1     -40.853-159.467 310.995  0.00  0.00    +0.000 C 
ATOM      2  O   UNL     1     -39.849-158.804 311.206  0.00  0.00    +0.000 OA
ATOM      3  N   UNL     1     -40.745-160.722 310.406  0.00  0.00    +0.000 N 
ATOM      4  C   UNL     1     -39.640-161.587 310.781  0.00  0.00    +0.000 C 
ATOM      5  C   UNL     1     -40.221-162.958 311.169  0.00  0.00    +0.000 C 
ATOM      6  C   UNL     1     -41.202-163.577 310.119  0.00  0.00    +0.000 C 
ATOM      7  C   UNL     1     -41.830-164.873 310.645  0.00  0.00    +0.000 C 
ATOM      8  C   UNL     1     -41.341-165.974 309.692  0.00  0.00    +0.000 C 
ATOM      9  C   UNL     1     -40.081-165.370 309.117  0.00  0.00    +0.000 C 
ATOM     10  O   UNL     1     -40.563-164.031 308.917  0.00  0.00    +0.000 OA
ATOM     11  C   UNL     1     -42.225-162.519 309.680  0.00  0.00    +0.000 C 
ATOM     12  C   UNL     1     -41.516-161.225 309.279  0.00  0.00    +0.000 C 
ENDROOT
BRANCH   1  13
ATOM     13  C   UNL     1     -42.256-159.040 311.551  0.00  0.00    +0.000 C 
ATOM     14  C   UNL     1     -42.107-157.827 312.491  0.00  0.00    +0.000 C 
ATOM     15  C   UNL     1     -42.947-160.176 312.316  0.00  0.00    +0.000 C 
BRANCH  13  17
ATOM     16  C   UNL     1     -42.602-157.730 309.320  0.00  0.00    +0.000 C 
ATOM     17  C   UNL     1     -43.217-158.632 310.391  0.00  0.00    +0.000 C 
ENDBRANCH  13  17
ENDBRANCH   1  13
BRANCH   9  18
ATOM     18  C   UNL     1     -39.523-166.008 307.816  0.00  0.00    +0.000 C 
BRANCH  18  19
ATOM     19  N   UNL     1     -38.547-165.265 306.975  0.00  0.00    +0.000 NA
ATOM     20  C   UNL     1     -37.453-164.704 307.791  0.00  0.00    +0.000 C 
ATOM     21  C   UNL     1     -36.294-165.688 307.992  0.00  0.00    +0.000 C 
ATOM     22  O   UNL     1     -35.739-166.157 306.765  0.00  0.00    +0.000 OA
ATOM     23  C   UNL     1     -36.771-166.870 306.056  0.00  0.00    +0.000 C 
ATOM     24  C   UNL     1     -37.956-165.925 305.786  0.00  0.00    +0.000 C 
ENDBRANCH  18  19
ENDBRANCH   9  18
TORSDOF 4
ENDMDL
MODEL 7
REMARK VINA RESULT:    -6.118      2.946      4.045
REMARK INTER + INTRA:          -7.447
REMARK INTER:                  -7.529
REMARK INTRA:                   0.082
REMARK UNBOUND:                 0.102
REMARK  Name = 
REMARK  7 active torsions:
REMARK  status: ('A' for Active; 'I' for Inactive)
REMARK    1  A    between atoms: C_1  and  C_2
REMARK    2  A    between atoms: C_2  and  C_3
REMARK    3  A    between atoms: C_3  and  C_4
REMARK    4  A    between atoms: C_3  and  C_5
REMARK    5  A    between atoms: C_3  and  C_6
REMARK    6  A    between atoms: C_14  and  C_15
REMARK    7  A    between atoms: C_15  and  N_16
REMARK                            x       y       z     vdW  Elec       q    Type
REMARK                         _______ _______ _______ _____ _____    ______ ____
ROOT
ATOM      1  C   UNL     1     -45.026-155.683 306.150  0.00  0.00    +0.000 C 
ATOM      2  O   UNL     1     -46.230-155.777 305.969  0.00  0.00    +0.000 OA
ATOM      3  N   UNL     1     -44.429-156.349 307.215  0.00  0.00    +0.000 N 
ATOM      4  C   UNL     1     -44.887-157.684 307.558  0.00  0.00    +0.000 C 
ATOM      5  C   UNL     1     -43.655-158.603 307.635  0.00  0.00    +0.000 C 
ATOM      6  C   UNL     1     -42.489-158.065 308.530  0.00  0.00    +0.000 C 
ATOM      7  C   UNL     1     -41.258-158.976 308.443  0.00  0.00    +0.000 C 
ATOM      8  C   UNL     1     -41.064-159.527 309.863  0.00  0.00    +0.000 C 
ATOM      9  C   UNL     1     -42.446-159.391 310.458  0.00  0.00    +0.000 C 
ATOM     10  O   UNL     1     -42.771-158.091 309.937  0.00  0.00    +0.000 OA
ATOM     11  C   UNL     1     -42.206-156.596 308.184  0.00  0.00    +0.000 C 
ATOM     12  C   UNL     1     -43.503-155.787 308.186  0.00  0.00    +0.000 C 
ENDROOT
BRANCH   1  13
ATOM     13  C   UNL     1     -44.085-154.993 305.101  0.00  0.00    +0.000 C 
ATOM     14  C   UNL     1     -42.958-154.229 305.822  0.00  0.00    +0.000 C 
ATOM     15  C   UNL     1     -44.845-154.014 304.196  0.00  0.00    +0.000 C 
BRANCH  13  17
ATOM     16  C   UNL     1     -42.071-156.585 304.631  0.00  0.00    +0.000 C 
ATOM     17  C   UNL     1     -43.424-156.050 304.161  0.00  0.00    +0.000 C 
ENDBRANCH  13  17
ENDBRANCH   1  13
BRANCH   9  18
ATOM     18  C   UNL     1     -42.560-159.464 312.005  0.00  0.00    +0.000 C 
BRANCH  18  19
ATOM     19  N   UNL     1     -43.109-160.681 312.660  0.00  0.00    +0.000 NA
ATOM     20  C   UNL     1     -42.091-161.747 312.752  0.00  0.00    +0.000 C 
ATOM     21  C   UNL     1     -41.231-161.642 314.018  0.00  0.00    +0.000 C 
ATOM     22  O   UNL     1     -42.000-161.655 315.219  0.00  0.00    +0.000 OA
ATOM     23  C   UNL     1     -42.861-160.500 315.206  0.00  0.00    +0.000 C 
ATOM     24  C   UNL     1     -43.784-160.561 313.975  0.00  0.00    +0.000 C 
ENDBRANCH  18  19
ENDBRANCH   9  18
TORSDOF 4
ENDMDL
