MODEL 1
REMARK VINA RESULT:    -9.641      0.000      0.000
REMARK INTER + INTRA:         -13.078
REMARK INTER:                 -12.459
REMARK INTRA:                  -0.619
REMARK UNBOUND:                -0.619
REMARK  Name = 
REMARK  6 active torsions:
REMARK  status: ('A' for Active; 'I' for Inactive)
REMARK    1  A    between atoms: C_1  and  C_2
REMARK    2  A    between atoms: C_3  and  C_4
REMARK    3  A    between atoms: C_4  and  C_5
REMARK    4  A    between atoms: C_10  and  O_11
REMARK    5  A    between atoms: O_11  and  S_12
REMARK    6  A    between atoms: S_12  and  C_15
REMARK                            x       y       z     vdW  Elec       q    Type
REMARK                         _______ _______ _______ _____ _____    ______ ____
ROOT
ATOM      1  O   UNL     1     -41.522-161.855 309.051  0.00  0.00    +0.000 OA
ENDROOT
BRANCH   1   7
ATOM      2  C   UNL     1     -42.170-159.368 309.675  0.00  0.00    +0.000 A 
ATOM      3  C   UNL     1     -42.650-158.613 310.792  0.00  0.00    +0.000 A 
ATOM      4  C   UNL     1     -42.897-159.176 312.036  0.00  0.00    +0.000 A 
ATOM      5  C   UNL     1     -42.810-160.548 312.182  0.00  0.00    +0.000 A 
ATOM      6  C   UNL     1     -42.396-161.343 311.108  0.00  0.00    +0.000 A 
ATOM      7  C   UNL     1     -42.020-160.797 309.860  0.00  0.00    +0.000 A 
BRANCH   2   8
ATOM      8  C   UNL     1     -41.732-158.345 308.589  0.00  0.00    +0.000 C 
BRANCH   8  11
ATOM      9  C   UNL     1     -44.240-155.251 308.024  0.00  0.00    +0.000 C 
ATOM     10  C   UNL     1     -42.969-156.132 307.999  0.00  0.00    +0.000 C 
ATOM     11  C   UNL     1     -42.751-157.470 307.960  0.00  0.00    +0.000 C 
ENDBRANCH   8  11
ENDBRANCH   2   8
ENDBRANCH   1   7
BRANCH   1  12
ATOM     12  S   UNL     1     -39.958-161.908 308.718  0.00  0.00    +0.000 S 
ATOM     13  O   UNL     1     -39.844-160.922 307.635  0.00  0.00    +0.000 OA
ATOM     14  O   UNL     1     -39.380-162.082 310.014  0.00  0.00    +0.000 OA
BRANCH  12  15
ATOM     15  C   UNL     1     -39.035-163.215 308.076  0.00  0.00    +0.000 A 
ATOM     16  C   UNL     1     -38.055-162.919 307.196  0.00  0.00    +0.000 A 
ATOM     17  C   UNL     1     -37.496-164.011 306.575  0.00  0.00    +0.000 A 
ATOM     18  C   UNL     1     -37.757-165.335 306.993  0.00  0.00    +0.000 A 
ATOM     19  F   UNL     1     -37.066-166.331 306.437  0.00  0.00    +0.000 F 
ATOM     20  C   UNL     1     -38.701-165.644 307.946  0.00  0.00    +0.000 A 
ATOM     21  C   UNL     1     -39.415-164.575 308.411  0.00  0.00    +0.000 A 
ATOM     22  F   UNL     1     -40.459-164.894 309.205  0.00  0.00    +0.000 F 
ENDBRANCH  12  15
ENDBRANCH   1  12
TORSDOF 5
ENDMDL
MODEL 2
REMARK VINA RESULT:    -9.615      1.057      3.223
REMARK INTER + INTRA:         -13.045
REMARK INTER:                 -12.579
REMARK INTRA:                  -0.466
REMARK UNBOUND:                -0.619
REMARK  Name = 
REMARK  6 active torsions:
REMARK  status: ('A' for Active; 'I' for Inactive)
REMARK    1  A    between atoms: C_1  and  C_2
REMARK    2  A    between atoms: C_3  and  C_4
REMARK    3  A    between atoms: C_4  and  C_5
REMARK    4  A    between atoms: C_10  and  O_11
REMARK    5  A    between atoms: O_11  and  S_12
REMARK    6  A    between atoms: S_12  and  C_15
REMARK                            x       y       z     vdW  Elec       q    Type
REMARK                         _______ _______ _______ _____ _____    ______ ____
ROOT
ATOM      1  O   UNL     1     -39.783-160.234 308.138  0.00  0.00    +0.000 OA
ENDROOT
BRANCH   1   7
ATOM      2  C   UNL     1     -41.427-158.940 309.755  0.00  0.00    +0.000 A 
ATOM      3  C   UNL     1     -42.506-158.002 309.692  0.00  0.00    +0.000 A 
ATOM      4  C   UNL     1     -43.009-157.506 308.497  0.00  0.00    +0.000 A 
ATOM      5  C   UNL     1     -42.364-157.819 307.316  0.00  0.00    +0.000 A 
ATOM      6  C   UNL     1     -41.271-158.691 307.322  0.00  0.00    +0.000 A 
ATOM      7  C   UNL     1     -40.802-159.311 308.503  0.00  0.00    +0.000 A 
BRANCH   2   8
ATOM      8  C   UNL     1     -41.373-159.473 311.215  0.00  0.00    +0.000 C 
BRANCH   8  11
ATOM      9  C   UNL     1     -44.061-160.430 314.051  0.00  0.00    +0.000 C 
ATOM     10  C   UNL     1     -43.287-159.637 312.971  0.00  0.00    +0.000 C 
ATOM     11  C   UNL     1     -42.611-159.987 311.849  0.00  0.00    +0.000 C 
ENDBRANCH   8  11
ENDBRANCH   2   8
ENDBRANCH   1   7
BRANCH   1  12
ATOM     12  S   UNL     1     -39.966-161.779 308.509  0.00  0.00    +0.000 S 
ATOM     13  O   UNL     1     -39.733-161.772 309.960  0.00  0.00    +0.000 OA
ATOM     14  O   UNL     1     -41.031-162.174 307.641  0.00  0.00    +0.000 OA
BRANCH  12  15
ATOM     15  C   UNL     1     -39.005-163.126 308.025  0.00  0.00    +0.000 A 
ATOM     16  C   UNL     1     -37.993-162.896 307.162  0.00  0.00    +0.000 A 
ATOM     17  C   UNL     1     -37.397-164.031 306.664  0.00  0.00    +0.000 A 
ATOM     18  C   UNL     1     -37.663-165.317 307.188  0.00  0.00    +0.000 A 
ATOM     19  F   UNL     1     -36.940-166.349 306.751  0.00  0.00    +0.000 F 
ATOM     20  C   UNL     1     -38.642-165.552 308.125  0.00  0.00    +0.000 A 
ATOM     21  C   UNL     1     -39.386-164.455 308.464  0.00  0.00    +0.000 A 
ATOM     22  F   UNL     1     -40.458-164.717 309.240  0.00  0.00    +0.000 F 
ENDBRANCH  12  15
ENDBRANCH   1  12
TORSDOF 5
ENDMDL
MODEL 3
REMARK VINA RESULT:    -9.589      1.720      2.164
REMARK INTER + INTRA:         -13.010
REMARK INTER:                 -12.444
REMARK INTRA:                  -0.566
REMARK UNBOUND:                -0.619
REMARK  Name = 
REMARK  6 active torsions:
REMARK  status: ('A' for Active; 'I' for Inactive)
REMARK    1  A    between atoms: C_1  and  C_2
REMARK    2  A    between atoms: C_3  and  C_4
REMARK    3  A    between atoms: C_4  and  C_5
REMARK    4  A    between atoms: C_10  and  O_11
REMARK    5  A    between atoms: O_11  and  S_12
REMARK    6  A    between atoms: S_12  and  C_15
REMARK                            x       y       z     vdW  Elec       q    Type
REMARK                         _______ _______ _______ _____ _____    ______ ____
ROOT
ATOM      1  O   UNL     1     -42.044-162.204 309.582  0.00  0.00    +0.000 OA
ENDROOT
BRANCH   1   7
ATOM      2  C   UNL     1     -41.738-159.588 309.814  0.00  0.00    +0.000 A 
ATOM      3  C   UNL     1     -41.946-158.545 310.773  0.00  0.00    +0.000 A 
ATOM      4  C   UNL     1     -42.440-158.778 312.049  0.00  0.00    +0.000 A 
ATOM      5  C   UNL     1     -42.880-160.046 312.378  0.00  0.00    +0.000 A 
ATOM      6  C   UNL     1     -42.750-161.095 311.461  0.00  0.00    +0.000 A 
ATOM      7  C   UNL     1     -42.143-160.925 310.196  0.00  0.00    +0.000 A 
BRANCH   2   8
ATOM      8  C   UNL     1     -40.902-158.978 308.653  0.00  0.00    +0.000 C 
BRANCH   8  11
ATOM      9  C   UNL     1     -41.498-157.027 305.186  0.00  0.00    +0.000 C 
ATOM     10  C   UNL     1     -41.231-158.160 306.204  0.00  0.00    +0.000 C 
ATOM     11  C   UNL     1     -41.601-158.377 307.491  0.00  0.00    +0.000 C 
ENDBRANCH   8  11
ENDBRANCH   2   8
ENDBRANCH   1   7
BRANCH   1  12
ATOM     12  S   UNL     1     -40.761-163.111 309.879  0.00  0.00    +0.000 S 
ATOM     13  O   UNL     1     -39.954-162.226 310.731  0.00  0.00    +0.000 OA
ATOM     14  O   UNL     1     -41.335-164.414 310.003  0.00  0.00    +0.000 OA
BRANCH  12  15
ATOM     15  C   UNL     1     -39.568-163.687 308.775  0.00  0.00    +0.000 A 
ATOM     16  C   UNL     1     -39.217-164.988 308.854  0.00  0.00    +0.000 A 
ATOM     17  C   UNL     1     -38.127-165.333 308.089  0.00  0.00    +0.000 A 
ATOM     18  C   UNL     1     -37.572-164.460 307.126  0.00  0.00    +0.000 A 
ATOM     19  F   UNL     1     -36.611-164.919 306.324  0.00  0.00    +0.000 F 
ATOM     20  C   UNL     1     -37.975-163.152 306.984  0.00  0.00    +0.000 A 
ATOM     21  C   UNL     1     -38.911-162.741 307.894  0.00  0.00    +0.000 A 
ATOM     22  F   UNL     1     -39.173-161.417 307.875  0.00  0.00    +0.000 F 
ENDBRANCH  12  15
ENDBRANCH   1  12
TORSDOF 5
ENDMDL
MODEL 4
REMARK VINA RESULT:    -9.545      3.860      6.471
REMARK INTER + INTRA:         -12.954
REMARK INTER:                 -12.289
REMARK INTRA:                  -0.665
REMARK UNBOUND:                -0.619
REMARK  Name = 
REMARK  6 active torsions:
REMARK  status: ('A' for Active; 'I' for Inactive)
REMARK    1  A    between atoms: C_1  and  C_2
REMARK    2  A    between atoms: C_3  and  C_4
REMARK    3  A    between atoms: C_4  and  C_5
REMARK    4  A    between atoms: C_10  and  O_11
REMARK    5  A    between atoms: O_11  and  S_12
REMARK    6  A    between atoms: S_12  and  C_15
REMARK                            x       y       z     vdW  Elec       q    Type
REMARK                         _______ _______ _______ _____ _____    ______ ____
ROOT
ATOM      1  O   UNL     1     -42.676-160.174 310.290  0.00  0.00    +0.000 OA
ENDROOT
BRANCH   1   7
ATOM      2  C   UNL     1     -41.244-161.201 312.262  0.00  0.00    +0.000 A 
ATOM      3  C   UNL     1     -41.337-161.437 313.670  0.00  0.00    +0.000 A 
ATOM      4  C   UNL     1     -42.460-161.114 314.419  0.00  0.00    +0.000 A 
ATOM      5  C   UNL     1     -43.488-160.411 313.819  0.00  0.00    +0.000 A 
ATOM      6  C   UNL     1     -43.428-160.106 312.456  0.00  0.00    +0.000 A 
ATOM      7  C   UNL     1     -42.357-160.522 311.631  0.00  0.00    +0.000 A 
BRANCH   2   8
ATOM      8  C   UNL     1     -39.990-161.969 311.754  0.00  0.00    +0.000 C 
BRANCH   8  11
ATOM      9  C   UNL     1     -40.866-165.212 309.540  0.00  0.00    +0.000 C 
ATOM     10  C   UNL     1     -40.993-163.846 310.256  0.00  0.00    +0.000 C 
ATOM     11  C   UNL     1     -40.114-162.867 310.579  0.00  0.00    +0.000 C 
ENDBRANCH   8  11
ENDBRANCH   2   8
ENDBRANCH   1   7
BRANCH   1  12
ATOM     12  S   UNL     1     -41.845-159.012 309.570  0.00  0.00    +0.000 S 
ATOM     13  O   UNL     1     -42.142-157.853 310.424  0.00  0.00    +0.000 OA
ATOM     14  O   UNL     1     -40.668-159.702 309.146  0.00  0.00    +0.000 OA
BRANCH  12  15
ATOM     15  C   UNL     1     -42.074-158.336 308.000  0.00  0.00    +0.000 A 
ATOM     16  C   UNL     1     -41.048-158.416 307.128  0.00  0.00    +0.000 A 
ATOM     17  C   UNL     1     -41.220-157.687 305.974  0.00  0.00    +0.000 A 
ATOM     18  C   UNL     1     -42.459-157.100 305.629  0.00  0.00    +0.000 A 
ATOM     19  F   UNL     1     -42.587-156.535 304.428  0.00  0.00    +0.000 F 
ATOM     20  C   UNL     1     -43.538-157.079 306.482  0.00  0.00    +0.000 A 
ATOM     21  C   UNL     1     -43.300-157.613 307.718  0.00  0.00    +0.000 A 
ATOM     22  F   UNL     1     -44.294-157.431 308.614  0.00  0.00    +0.000 F 
ENDBRANCH  12  15
ENDBRANCH   1  12
TORSDOF 5
ENDMDL
MODEL 5
REMARK VINA RESULT:    -9.511      2.162      4.508
REMARK INTER + INTRA:         -12.910
REMARK INTER:                 -12.407
REMARK INTRA:                  -0.503
REMARK UNBOUND:                -0.619
REMARK  Name = 
REMARK  6 active torsions:
REMARK  status: ('A' for Active; 'I' for Inactive)
REMARK    1  A    between atoms: C_1  and  C_2
REMARK    2  A    between atoms: C_3  and  C_4
REMARK    3  A    between atoms: C_4  and  C_5
REMARK    4  A    between atoms: C_10  and  O_11
REMARK    5  A    between atoms: O_11  and  S_12
REMARK    6  A    between atoms: S_12  and  C_15
REMARK                            x       y       z     vdW  Elec       q    Type
REMARK                         _______ _______ _______ _____ _____    ______ ____
ROOT
ATOM      1  O   UNL     1     -42.312-162.297 310.542  0.00  0.00    +0.000 OA
ENDROOT
BRANCH   1   7
ATOM      2  C   UNL     1     -42.373-160.360 312.341  0.00  0.00    +0.000 A 
ATOM      3  C   UNL     1     -42.271-158.934 312.413  0.00  0.00    +0.000 A 
ATOM      4  C   UNL     1     -42.101-158.130 311.295  0.00  0.00    +0.000 A 
ATOM      5  C   UNL     1     -41.888-158.725 310.066  0.00  0.00    +0.000 A 
ATOM      6  C   UNL     1     -41.925-160.118 309.944  0.00  0.00    +0.000 A 
ATOM      7  C   UNL     1     -42.213-160.968 311.036  0.00  0.00    +0.000 A 
BRANCH   2   8
ATOM      8  C   UNL     1     -42.858-160.852 313.734  0.00  0.00    +0.000 C 
BRANCH   8  11
ATOM      9  C   UNL     1     -41.211-162.207 317.145  0.00  0.00    +0.000 C 
ATOM     10  C   UNL     1     -42.031-162.148 315.834  0.00  0.00    +0.000 C 
ATOM     11  C   UNL     1     -41.887-161.479 314.664  0.00  0.00    +0.000 C 
ENDBRANCH   8  11
ENDBRANCH   2   8
ENDBRANCH   1   7
BRANCH   1  12
ATOM     12  S   UNL     1     -41.012-163.230 310.557  0.00  0.00    +0.000 S 
ATOM     13  O   UNL     1     -40.084-162.445 311.383  0.00  0.00    +0.000 OA
ATOM     14  O   UNL     1     -41.582-164.540 310.612  0.00  0.00    +0.000 OA
BRANCH  12  15
ATOM     15  C   UNL     1     -39.990-163.676 309.241  0.00  0.00    +0.000 A 
ATOM     16  C   UNL     1     -39.776-164.993 309.033  0.00  0.00    +0.000 A 
ATOM     17  C   UNL     1     -38.801-165.273 308.104  0.00  0.00    +0.000 A 
ATOM     18  C   UNL     1     -38.243-164.277 307.270  0.00  0.00    +0.000 A 
ATOM     19  F   UNL     1     -37.411-164.649 306.297  0.00  0.00    +0.000 F 
ATOM     20  C   UNL     1     -38.514-162.937 307.424  0.00  0.00    +0.000 A 
ATOM     21  C   UNL     1     -39.316-162.635 308.490  0.00  0.00    +0.000 A 
ATOM     22  F   UNL     1     -39.435-161.316 308.752  0.00  0.00    +0.000 F 
ENDBRANCH  12  15
ENDBRANCH   1  12
TORSDOF 5
ENDMDL
MODEL 6
REMARK VINA RESULT:    -9.481      3.709      6.994
REMARK INTER + INTRA:         -12.871
REMARK INTER:                 -12.222
REMARK INTRA:                  -0.649
REMARK UNBOUND:                -0.619
REMARK  Name = 
REMARK  6 active torsions:
REMARK  status: ('A' for Active; 'I' for Inactive)
REMARK    1  A    between atoms: C_1  and  C_2
REMARK    2  A    between atoms: C_3  and  C_4
REMARK    3  A    between atoms: C_4  and  C_5
REMARK    4  A    between atoms: C_10  and  O_11
REMARK    5  A    between atoms: O_11  and  S_12
REMARK    6  A    between atoms: S_12  and  C_15
REMARK                            x       y       z     vdW  Elec       q    Type
REMARK                         _______ _______ _______ _____ _____    ______ ____
ROOT
ATOM      1  O   UNL     1     -40.724-158.955 309.541  0.00  0.00    +0.000 OA
ENDROOT
BRANCH   1   7
ATOM      2  C   UNL     1     -41.039-161.519 310.108  0.00  0.00    +0.000 A 
ATOM      3  C   UNL     1     -41.192-162.374 311.245  0.00  0.00    +0.000 A 
ATOM      4  C   UNL     1     -41.232-161.900 312.549  0.00  0.00    +0.000 A 
ATOM      5  C   UNL     1     -40.981-160.562 312.785  0.00  0.00    +0.000 A 
ATOM      6  C   UNL     1     -40.771-159.687 311.714  0.00  0.00    +0.000 A 
ATOM      7  C   UNL     1     -40.841-160.107 310.366  0.00  0.00    +0.000 A 
BRANCH   2   8
ATOM      8  C   UNL     1     -41.351-162.376 308.849  0.00  0.00    +0.000 C 
BRANCH   8  11
ATOM      9  C   UNL     1     -37.706-162.718 307.182  0.00  0.00    +0.000 C 
ATOM     10  C   UNL     1     -38.883-162.858 308.175  0.00  0.00    +0.000 C 
ATOM     11  C   UNL     1     -40.231-162.911 308.036  0.00  0.00    +0.000 C 
ENDBRANCH   8  11
ENDBRANCH   2   8
ENDBRANCH   1   7
BRANCH   1  12
ATOM     12  S   UNL     1     -41.568-158.883 308.184  0.00  0.00    +0.000 S 
ATOM     13  O   UNL     1     -40.647-159.500 307.220  0.00  0.00    +0.000 OA
ATOM     14  O   UNL     1     -42.898-159.137 308.643  0.00  0.00    +0.000 OA
BRANCH  12  15
ATOM     15  C   UNL     1     -42.084-157.490 307.307  0.00  0.00    +0.000 A 
ATOM     16  C   UNL     1     -41.838-157.458 305.980  0.00  0.00    +0.000 A 
ATOM     17  C   UNL     1     -42.090-156.247 305.381  0.00  0.00    +0.000 A 
ATOM     18  C   UNL     1     -42.769-155.201 306.047  0.00  0.00    +0.000 A 
ATOM     19  F   UNL     1     -43.105-154.112 305.354  0.00  0.00    +0.000 F 
ATOM     20  C   UNL     1     -43.094-155.254 307.383  0.00  0.00    +0.000 A 
ATOM     21  C   UNL     1     -42.649-156.371 308.036  0.00  0.00    +0.000 A 
ATOM     22  F   UNL     1     -42.805-156.342 309.376  0.00  0.00    +0.000 F 
ENDBRANCH  12  15
ENDBRANCH   1  12
TORSDOF 5
ENDMDL
MODEL 7
REMARK VINA RESULT:    -9.224      2.558      5.270
REMARK INTER + INTRA:         -12.540
REMARK INTER:                 -11.957
REMARK INTRA:                  -0.583
REMARK UNBOUND:                -0.619
REMARK  Name = 
REMARK  6 active torsions:
REMARK  status: ('A' for Active; 'I' for Inactive)
REMARK    1  A    between atoms: C_1  and  C_2
REMARK    2  A    between atoms: C_3  and  C_4
REMARK    3  A    between atoms: C_4  and  C_5
REMARK    4  A    between atoms: C_10  and  O_11
REMARK    5  A    between atoms: O_11  and  S_12
REMARK    6  A    between atoms: S_12  and  C_15
REMARK                            x       y       z     vdW  Elec       q    Type
REMARK                         _______ _______ _______ _____ _____    ______ ____
ROOT
ATOM      1  O   UNL     1     -42.805-158.237 310.212  0.00  0.00    +0.000 OA
ENDROOT
BRANCH   1   7
ATOM      2  C   UNL     1     -41.419-158.859 308.047  0.00  0.00    +0.000 A 
ATOM      3  C   UNL     1     -41.327-158.491 306.667  0.00  0.00    +0.000 A 
ATOM      4  C   UNL     1     -42.114-157.503 306.093  0.00  0.00    +0.000 A 
ATOM      5  C   UNL     1     -43.128-156.933 306.840  0.00  0.00    +0.000 A 
ATOM      6  C   UNL     1     -43.299-157.293 308.181  0.00  0.00    +0.000 A 
ATOM      7  C   UNL     1     -42.443-158.207 308.837  0.00  0.00    +0.000 A 
BRANCH   2   8
ATOM      8  C   UNL     1     -40.187-159.755 308.362  0.00  0.00    +0.000 C 
BRANCH   8  11
ATOM      9  C   UNL     1     -38.681-163.331 307.302  0.00  0.00    +0.000 C 
ATOM     10  C   UNL     1     -39.468-162.239 308.062  0.00  0.00    +0.000 C 
ATOM     11  C   UNL     1     -40.056-161.074 307.695  0.00  0.00    +0.000 C 
ENDBRANCH   8  11
ENDBRANCH   2   8
ENDBRANCH   1   7
BRANCH   1  12
ATOM     12  S   UNL     1     -42.156-159.349 311.161  0.00  0.00    +0.000 S 
ATOM     13  O   UNL     1     -40.763-158.891 311.258  0.00  0.00    +0.000 OA
ATOM     14  O   UNL     1     -43.217-159.615 312.082  0.00  0.00    +0.000 OA
BRANCH  12  15
ATOM     15  C   UNL     1     -41.932-161.032 310.856  0.00  0.00    +0.000 A 
ATOM     16  C   UNL     1     -42.777-161.630 309.989  0.00  0.00    +0.000 A 
ATOM     17  C   UNL     1     -42.674-163.000 309.944  0.00  0.00    +0.000 A 
ATOM     18  C   UNL     1     -41.617-163.700 310.570  0.00  0.00    +0.000 A 
ATOM     19  F   UNL     1     -41.504-165.012 310.358  0.00  0.00    +0.000 F 
ATOM     20  C   UNL     1     -40.702-163.087 311.395  0.00  0.00    +0.000 A 
ATOM     21  C   UNL     1     -40.933-161.757 311.617  0.00  0.00    +0.000 A 
ATOM     22  F   UNL     1     -40.151-161.198 312.564  0.00  0.00    +0.000 F 
ENDBRANCH  12  15
ENDBRANCH   1  12
TORSDOF 5
ENDMDL
MODEL 8
REMARK VINA RESULT:    -9.081      3.643      6.778
REMARK INTER + INTRA:         -12.354
REMARK INTER:                 -11.881
REMARK INTRA:                  -0.474
REMARK UNBOUND:                -0.619
REMARK  Name = 
REMARK  6 active torsions:
REMARK  status: ('A' for Active; 'I' for Inactive)
REMARK    1  A    between atoms: C_1  and  C_2
REMARK    2  A    between atoms: C_3  and  C_4
REMARK    3  A    between atoms: C_4  and  C_5
REMARK    4  A    between atoms: C_10  and  O_11
REMARK    5  A    between atoms: O_11  and  S_12
REMARK    6  A    between atoms: S_12  and  C_15
REMARK                            x       y       z     vdW  Elec       q    Type
REMARK                         _______ _______ _______ _____ _____    ______ ____
ROOT
ATOM      1  O   UNL     1     -42.553-158.717 310.486  0.00  0.00    +0.000 OA
ENDROOT
BRANCH   1   7
ATOM      2  C   UNL     1     -41.325-159.070 308.170  0.00  0.00    +0.000 A 
ATOM      3  C   UNL     1     -41.317-158.528 306.846  0.00  0.00    +0.000 A 
ATOM      4  C   UNL     1     -42.122-157.466 306.457  0.00  0.00    +0.000 A 
ATOM      5  C   UNL     1     -43.073-156.987 307.338  0.00  0.00    +0.000 A 
ATOM      6  C   UNL     1     -43.162-157.514 308.630  0.00  0.00    +0.000 A 
ATOM      7  C   UNL     1     -42.282-158.514 309.104  0.00  0.00    +0.000 A 
BRANCH   2   8
ATOM      8  C   UNL     1     -40.092-160.011 308.284  0.00  0.00    +0.000 C 
BRANCH   8  11
ATOM      9  C   UNL     1     -39.317-163.958 308.217  0.00  0.00    +0.000 C 
ATOM     10  C   UNL     1     -39.814-162.568 308.681  0.00  0.00    +0.000 C 
ATOM     11  C   UNL     1     -40.260-161.464 308.034  0.00  0.00    +0.000 C 
ENDBRANCH   8  11
ENDBRANCH   2   8
ENDBRANCH   1   7
BRANCH   1  12
ATOM     12  S   UNL     1     -41.945-160.004 311.215  0.00  0.00    +0.000 S 
ATOM     13  O   UNL     1     -42.586-161.102 310.478  0.00  0.00    +0.000 OA
ATOM     14  O   UNL     1     -40.603-159.592 311.484  0.00  0.00    +0.000 OA
BRANCH  12  15
ATOM     15  C   UNL     1     -42.164-160.525 312.844  0.00  0.00    +0.000 A 
ATOM     16  C   UNL     1     -41.241-161.360 313.365  0.00  0.00    +0.000 A 
ATOM     17  C   UNL     1     -41.576-161.893 314.588  0.00  0.00    +0.000 A 
ATOM     18  C   UNL     1     -42.678-161.425 315.339  0.00  0.00    +0.000 A 
ATOM     19  F   UNL     1     -42.853-161.890 316.577  0.00  0.00    +0.000 F 
ATOM     20  C   UNL     1     -43.585-160.515 314.847  0.00  0.00    +0.000 A 
ATOM     21  C   UNL     1     -43.376-160.146 313.546  0.00  0.00    +0.000 A 
ATOM     22  F   UNL     1     -44.361-159.399 313.005  0.00  0.00    +0.000 F 
ENDBRANCH  12  15
ENDBRANCH   1  12
TORSDOF 5
ENDMDL
MODEL 9
REMARK VINA RESULT:    -8.936      2.898      4.028
REMARK INTER + INTRA:         -12.167
REMARK INTER:                 -12.570
REMARK INTRA:                   0.403
REMARK UNBOUND:                -0.619
REMARK  Name = 
REMARK  6 active torsions:
REMARK  status: ('A' for Active; 'I' for Inactive)
REMARK    1  A    between atoms: C_1  and  C_2
REMARK    2  A    between atoms: C_3  and  C_4
REMARK    3  A    between atoms: C_4  and  C_5
REMARK    4  A    between atoms: C_10  and  O_11
REMARK    5  A    between atoms: O_11  and  S_12
REMARK    6  A    between atoms: S_12  and  C_15
REMARK                            x       y       z     vdW  Elec       q    Type
REMARK                         _______ _______ _______ _____ _____    ______ ____
ROOT
ATOM      1  O   UNL     1     -42.678-158.676 310.781  0.00  0.00    +0.000 OA
ENDROOT
BRANCH   1   7
ATOM      2  C   UNL     1     -42.796-157.443 308.445  0.00  0.00    +0.000 A 
ATOM      3  C   UNL     1     -42.201-157.508 307.145  0.00  0.00    +0.000 A 
ATOM      4  C   UNL     1     -41.253-158.459 306.793  0.00  0.00    +0.000 A 
ATOM      5  C   UNL     1     -40.755-159.303 307.768  0.00  0.00    +0.000 A 
ATOM      6  C   UNL     1     -41.262-159.249 309.070  0.00  0.00    +0.000 A 
ATOM      7  C   UNL     1     -42.311-158.377 309.440  0.00  0.00    +0.000 A 
BRANCH   2   8
ATOM      8  C   UNL     1     -44.003-156.467 308.344  0.00  0.00    +0.000 C 
BRANCH   8  11
ATOM      9  C   UNL     1     -44.234-154.363 304.924  0.00  0.00    +0.000 C 
ATOM     10  C   UNL     1     -44.620-155.026 306.266  0.00  0.00    +0.000 C 
ATOM     11  C   UNL     1     -43.939-155.325 307.400  0.00  0.00    +0.000 C 
ENDBRANCH   8  11
ENDBRANCH   2   8
ENDBRANCH   1   7
BRANCH   1  12
ATOM     12  S   UNL     1     -41.896-159.835 311.560  0.00  0.00    +0.000 S 
ATOM     13  O   UNL     1     -40.587-159.211 311.799  0.00  0.00    +0.000 OA
ATOM     14  O   UNL     1     -42.929-160.402 312.370  0.00  0.00    +0.000 OA
BRANCH  12  15
ATOM     15  C   UNL     1     -41.423-161.391 310.986  0.00  0.00    +0.000 A 
ATOM     16  C   UNL     1     -40.158-161.792 311.232  0.00  0.00    +0.000 A 
ATOM     17  C   UNL     1     -39.787-162.945 310.580  0.00  0.00    +0.000 A 
ATOM     18  C   UNL     1     -40.719-163.763 309.902  0.00  0.00    +0.000 A 
ATOM     19  F   UNL     1     -40.308-164.937 309.420  0.00  0.00    +0.000 F 
ATOM     20  C   UNL     1     -42.032-163.399 309.711  0.00  0.00    +0.000 A 
ATOM     21  C   UNL     1     -42.351-162.151 310.170  0.00  0.00    +0.000 A 
ATOM     22  F   UNL     1     -43.583-161.720 309.824  0.00  0.00    +0.000 F 
ENDBRANCH  12  15
ENDBRANCH   1  12
TORSDOF 5
ENDMDL
MODEL 10
REMARK VINA RESULT:    -8.921      2.946      6.185
REMARK INTER + INTRA:         -12.147
REMARK INTER:                 -11.202
REMARK INTRA:                  -0.945
REMARK UNBOUND:                -0.619
REMARK  Name = 
REMARK  6 active torsions:
REMARK  status: ('A' for Active; 'I' for Inactive)
REMARK    1  A    between atoms: C_1  and  C_2
REMARK    2  A    between atoms: C_3  and  C_4
REMARK    3  A    between atoms: C_4  and  C_5
REMARK    4  A    between atoms: C_10  and  O_11
REMARK    5  A    between atoms: O_11  and  S_12
REMARK    6  A    between atoms: S_12  and  C_15
REMARK                            x       y       z     vdW  Elec       q    Type
REMARK                         _______ _______ _______ _____ _____    ______ ____
ROOT
ATOM      1  O   UNL     1     -40.151-165.123 309.693  0.00  0.00    +0.000 OA
ENDROOT
BRANCH   1   7
ATOM      2  C   UNL     1     -38.804-163.866 307.796  0.00  0.00    +0.000 A 
ATOM      3  C   UNL     1     -38.277-164.109 306.488  0.00  0.00    +0.000 A 
ATOM      4  C   UNL     1     -38.429-165.318 305.823  0.00  0.00    +0.000 A 
ATOM      5  C   UNL     1     -38.997-166.385 306.492  0.00  0.00    +0.000 A 
ATOM      6  C   UNL     1     -39.484-166.220 307.793  0.00  0.00    +0.000 A 
ATOM      7  C   UNL     1     -39.456-164.975 308.461  0.00  0.00    +0.000 A 
BRANCH   2   8
ATOM      8  C   UNL     1     -38.697-162.335 308.052  0.00  0.00    +0.000 C 
BRANCH   8  11
ATOM      9  C   UNL     1     -41.366-159.333 308.268  0.00  0.00    +0.000 C 
ATOM     10  C   UNL     1     -40.094-160.143 307.923  0.00  0.00    +0.000 C 
ATOM     11  C   UNL     1     -39.844-161.458 307.710  0.00  0.00    +0.000 C 
ENDBRANCH   8  11
ENDBRANCH   2   8
ENDBRANCH   1   7
BRANCH   1  12
ATOM     12  S   UNL     1     -41.273-164.052 310.085  0.00  0.00    +0.000 S 
ATOM     13  O   UNL     1     -41.788-163.655 308.767  0.00  0.00    +0.000 OA
ATOM     14  O   UNL     1     -41.824-164.616 311.277  0.00  0.00    +0.000 OA
BRANCH  12  15
ATOM     15  C   UNL     1     -41.079-162.514 310.842  0.00  0.00    +0.000 A 
ATOM     16  C   UNL     1     -39.903-162.261 311.455  0.00  0.00    +0.000 A 
ATOM     17  C   UNL     1     -39.886-161.109 312.205  0.00  0.00    +0.000 A 
ATOM     18  C   UNL     1     -40.927-160.154 312.147  0.00  0.00    +0.000 A 
ATOM     19  F   UNL     1     -40.770-158.996 312.790  0.00  0.00    +0.000 F 
ATOM     20  C   UNL     1     -42.100-160.369 311.460  0.00  0.00    +0.000 A 
ATOM     21  C   UNL     1     -42.210-161.608 310.892  0.00  0.00    +0.000 A 
ATOM     22  F   UNL     1     -43.426-161.887 310.377  0.00  0.00    +0.000 F 
ENDBRANCH  12  15
ENDBRANCH   1  12
TORSDOF 5
ENDMDL
