MODEL 1
REMARK VINA RESULT:    -9.060      0.000      0.000
REMARK INTER + INTRA:         -14.089
REMARK INTER:                 -13.297
REMARK INTRA:                  -0.792
REMARK UNBOUND:                -0.792
REMARK  Name = 
REMARK  10 active torsions:
REMARK  status: ('A' for Active; 'I' for Inactive)
REMARK    1  A    between atoms: C_1  and  C_2
REMARK    2  A    between atoms: C_2  and  O_3
REMARK    3  A    between atoms: O_3  and  C_4
REMARK    4  A    between atoms: C_7  and  C_8
REMARK    5  A    between atoms: C_8  and  O_10
REMARK    6  A    between atoms: O_10  and  C_11
REMARK    7  A    between atoms: C_11  and  C_12
REMARK    8  A    between atoms: N_14  and  C_15
REMARK    9  A    between atoms: C_21  and  O_22
REMARK   10  A    between atoms: O_22  and  C_23
REMARK                            x       y       z     vdW  Elec       q    Type
REMARK                         _______ _______ _______ _____ _____    ______ ____
ROOT
ATOM      1  C   UNL     1     -42.208-158.950 311.252  0.00  0.00    +0.000 C 
ATOM      2  O   UNL     1     -42.221-157.722 311.314  0.00  0.00    +0.000 OA
ENDROOT
BRANCH   1   6
ATOM      3  C   UNL     1     -42.645-161.179 314.921  0.00  0.00    +0.000 A 
ATOM      4  C   UNL     1     -43.683-160.425 314.400  0.00  0.00    +0.000 A 
ATOM      5  C   UNL     1     -43.524-159.793 313.156  0.00  0.00    +0.000 A 
ATOM      6  C   UNL     1     -42.287-159.806 312.469  0.00  0.00    +0.000 A 
ATOM      7  C   UNL     1     -41.253-160.601 312.974  0.00  0.00    +0.000 A 
ATOM      8  C   UNL     1     -41.494-161.307 314.156  0.00  0.00    +0.000 A 
BRANCH   7   9
ATOM      9  O   UNL     1     -40.065-160.736 312.302  0.00  0.00    +0.000 OA
ATOM     10  C   UNL     1     -39.809-161.998 311.671  0.00  0.00    +0.000 C 
ENDBRANCH   7   9
BRANCH   3  11
ATOM     11  O   UNL     1     -42.860-161.923 316.048  0.00  0.00    +0.000 OA
BRANCH  11  13
ATOM     12  C   UNL     1     -41.203-161.747 317.957  0.00  0.00    +0.000 C 
ATOM     13  C   UNL     1     -41.723-162.488 316.730  0.00  0.00    +0.000 C 
ENDBRANCH  11  13
ENDBRANCH   3  11
ENDBRANCH   1   6
BRANCH   1  14
ATOM     14  O   UNL     1     -42.062-159.645 310.111  0.00  0.00    +0.000 OA
BRANCH  14  15
ATOM     15  C   UNL     1     -40.839-159.423 309.400  0.00  0.00    +0.000 C 
BRANCH  15  16
ATOM     16  C   UNL     1     -40.963-159.474 307.866  0.00  0.00    +0.000 C 
ATOM     17  O   UNL     1     -40.523-160.434 307.229  0.00  0.00    +0.000 OA
ATOM     18  N   UNL     1     -41.634-158.486 307.180  0.00  0.00    +0.000 N 
ATOM     19  H   UNL     1     -41.520-158.588 306.176  0.00  0.00    +0.000 HD
BRANCH  18  20
ATOM     20  C   UNL     1     -42.302-157.270 307.675  0.00  0.00    +0.000 C 
ATOM     21  C   UNL     1     -41.883-156.036 306.846  0.00  0.00    +0.000 C 
ATOM     22  C   UNL     1     -42.704-154.785 307.207  0.00  0.00    +0.000 C 
ATOM     23  C   UNL     1     -44.211-155.018 307.110  0.00  0.00    +0.000 C 
ATOM     24  C   UNL     1     -44.594-156.171 307.985  0.00  0.00    +0.000 C 
ATOM     25  C   UNL     1     -43.818-157.388 307.589  0.00  0.00    +0.000 C 
ENDBRANCH  18  20
ENDBRANCH  15  16
ENDBRANCH  14  15
ENDBRANCH   1  14
TORSDOF 8
ENDMDL
MODEL 2
REMARK VINA RESULT:    -8.922      3.570      6.288
REMARK INTER + INTRA:         -13.886
REMARK INTER:                 -13.024
REMARK INTRA:                  -0.862
REMARK UNBOUND:                -0.792
REMARK  Name = 
REMARK  10 active torsions:
REMARK  status: ('A' for Active; 'I' for Inactive)
REMARK    1  A    between atoms: C_1  and  C_2
REMARK    2  A    between atoms: C_2  and  O_3
REMARK    3  A    between atoms: O_3  and  C_4
REMARK    4  A    between atoms: C_7  and  C_8
REMARK    5  A    between atoms: C_8  and  O_10
REMARK    6  A    between atoms: O_10  and  C_11
REMARK    7  A    between atoms: C_11  and  C_12
REMARK    8  A    between atoms: N_14  and  C_15
REMARK    9  A    between atoms: C_21  and  O_22
REMARK   10  A    between atoms: O_22  and  C_23
REMARK                            x       y       z     vdW  Elec       q    Type
REMARK                         _______ _______ _______ _____ _____    ______ ____
ROOT
ATOM      1  C   UNL     1     -40.359-160.874 308.186  0.00  0.00    +0.000 C 
ATOM      2  O   UNL     1     -40.682-160.240 307.184  0.00  0.00    +0.000 OA
ENDROOT
BRANCH   1   6
ATOM      3  C   UNL     1     -38.112-164.516 307.628  0.00  0.00    +0.000 A 
ATOM      4  C   UNL     1     -37.632-163.291 307.194  0.00  0.00    +0.000 A 
ATOM      5  C   UNL     1     -38.355-162.123 307.482  0.00  0.00    +0.000 A 
ATOM      6  C   UNL     1     -39.626-162.169 308.102  0.00  0.00    +0.000 A 
ATOM      7  C   UNL     1     -40.091-163.400 308.577  0.00  0.00    +0.000 A 
ATOM      8  C   UNL     1     -39.283-164.522 308.372  0.00  0.00    +0.000 A 
BRANCH   7   9
ATOM      9  O   UNL     1     -41.268-163.496 309.276  0.00  0.00    +0.000 OA
ATOM     10  C   UNL     1     -41.173-163.717 310.689  0.00  0.00    +0.000 C 
ENDBRANCH   7   9
BRANCH   3  11
ATOM     11  O   UNL     1     -37.328-165.628 307.490  0.00  0.00    +0.000 OA
BRANCH  11  13
ATOM     12  C   UNL     1     -38.658-166.690 305.613  0.00  0.00    +0.000 C 
ATOM     13  C   UNL     1     -37.312-166.309 306.220  0.00  0.00    +0.000 C 
ENDBRANCH  11  13
ENDBRANCH   3  11
ENDBRANCH   1   6
BRANCH   1  14
ATOM     14  O   UNL     1     -40.674-160.512 309.441  0.00  0.00    +0.000 OA
BRANCH  14  15
ATOM     15  C   UNL     1     -42.028-160.088 309.644  0.00  0.00    +0.000 C 
BRANCH  15  16
ATOM     16  C   UNL     1     -42.188-158.620 310.080  0.00  0.00    +0.000 C 
ATOM     17  O   UNL     1     -41.805-158.247 311.192  0.00  0.00    +0.000 OA
ATOM     18  N   UNL     1     -42.691-157.677 309.211  0.00  0.00    +0.000 N 
ATOM     19  H   UNL     1     -42.857-156.792 309.679  0.00  0.00    +0.000 HD
BRANCH  18  20
ATOM     20  C   UNL     1     -43.165-157.820 307.824  0.00  0.00    +0.000 C 
ATOM     21  C   UNL     1     -44.565-157.190 307.653  0.00  0.00    +0.000 C 
ATOM     22  C   UNL     1     -45.010-157.147 306.181  0.00  0.00    +0.000 C 
ATOM     23  C   UNL     1     -43.992-156.457 305.275  0.00  0.00    +0.000 C 
ATOM     24  C   UNL     1     -42.665-157.140 305.406  0.00  0.00    +0.000 C 
ATOM     25  C   UNL     1     -42.229-157.133 306.838  0.00  0.00    +0.000 C 
ENDBRANCH  18  20
ENDBRANCH  15  16
ENDBRANCH  14  15
ENDBRANCH   1  14
TORSDOF 8
ENDMDL
MODEL 3
REMARK VINA RESULT:    -8.756      3.087      7.155
REMARK INTER + INTRA:         -13.643
REMARK INTER:                 -13.048
REMARK INTRA:                  -0.595
REMARK UNBOUND:                -0.792
REMARK  Name = 
REMARK  10 active torsions:
REMARK  status: ('A' for Active; 'I' for Inactive)
REMARK    1  A    between atoms: C_1  and  C_2
REMARK    2  A    between atoms: C_2  and  O_3
REMARK    3  A    between atoms: O_3  and  C_4
REMARK    4  A    between atoms: C_7  and  C_8
REMARK    5  A    between atoms: C_8  and  O_10
REMARK    6  A    between atoms: O_10  and  C_11
REMARK    7  A    between atoms: C_11  and  C_12
REMARK    8  A    between atoms: N_14  and  C_15
REMARK    9  A    between atoms: C_21  and  O_22
REMARK   10  A    between atoms: O_22  and  C_23
REMARK                            x       y       z     vdW  Elec       q    Type
REMARK                         _______ _______ _______ _____ _____    ______ ____
ROOT
ATOM      1  C   UNL     1     -40.384-160.815 311.667  0.00  0.00    +0.000 C 
ATOM      2  O   UNL     1     -40.217-160.515 312.847  0.00  0.00    +0.000 OA
ENDROOT
BRANCH   1   6
ATOM      3  C   UNL     1     -42.147-158.218 308.706  0.00  0.00    +0.000 A 
ATOM      4  C   UNL     1     -41.283-159.242 308.353  0.00  0.00    +0.000 A 
ATOM      5  C   UNL     1     -40.809-160.119 309.342  0.00  0.00    +0.000 A 
ATOM      6  C   UNL     1     -41.094-159.917 310.713  0.00  0.00    +0.000 A 
ATOM      7  C   UNL     1     -41.999-158.910 311.064  0.00  0.00    +0.000 A 
ATOM      8  C   UNL     1     -42.538-158.134 310.034  0.00  0.00    +0.000 A 
BRANCH   7   9
ATOM      9  O   UNL     1     -42.395-158.728 312.365  0.00  0.00    +0.000 OA
ATOM     10  C   UNL     1     -43.571-159.426 312.795  0.00  0.00    +0.000 C 
ENDBRANCH   7   9
BRANCH   3  11
ATOM     11  O   UNL     1     -42.734-157.471 307.722  0.00  0.00    +0.000 OA
BRANCH  11  13
ATOM     12  C   UNL     1     -42.592-154.943 307.632  0.00  0.00    +0.000 C 
ATOM     13  C   UNL     1     -43.324-156.205 308.076  0.00  0.00    +0.000 C 
ENDBRANCH  11  13
ENDBRANCH   3  11
ENDBRANCH   1   6
BRANCH   1  14
ATOM     14  O   UNL     1     -40.006-161.986 311.127  0.00  0.00    +0.000 OA
BRANCH  14  15
ATOM     15  C   UNL     1     -40.949-163.058 311.245  0.00  0.00    +0.000 C 
BRANCH  15  16
ATOM     16  C   UNL     1     -41.674-163.431 309.939  0.00  0.00    +0.000 C 
ATOM     17  O   UNL     1     -42.903-163.371 309.860  0.00  0.00    +0.000 OA
ATOM     18  N   UNL     1     -40.961-163.764 308.808  0.00  0.00    +0.000 N 
ATOM     19  H   UNL     1     -41.570-164.108 308.073  0.00  0.00    +0.000 HD
BRANCH  18  20
ATOM     20  C   UNL     1     -39.507-163.859 308.595  0.00  0.00    +0.000 C 
ATOM     21  C   UNL     1     -39.125-165.237 308.010  0.00  0.00    +0.000 C 
ATOM     22  C   UNL     1     -37.645-165.304 307.593  0.00  0.00    +0.000 C 
ATOM     23  C   UNL     1     -37.248-164.181 306.637  0.00  0.00    +0.000 C 
ATOM     24  C   UNL     1     -37.560-162.858 307.266  0.00  0.00    +0.000 C 
ATOM     25  C   UNL     1     -39.012-162.795 307.624  0.00  0.00    +0.000 C 
ENDBRANCH  18  20
ENDBRANCH  15  16
ENDBRANCH  14  15
ENDBRANCH   1  14
TORSDOF 8
ENDMDL
MODEL 4
REMARK VINA RESULT:    -8.648      3.541      7.331
REMARK INTER + INTRA:         -13.485
REMARK INTER:                 -12.795
REMARK INTRA:                  -0.690
REMARK UNBOUND:                -0.792
REMARK  Name = 
REMARK  10 active torsions:
REMARK  status: ('A' for Active; 'I' for Inactive)
REMARK    1  A    between atoms: C_1  and  C_2
REMARK    2  A    between atoms: C_2  and  O_3
REMARK    3  A    between atoms: O_3  and  C_4
REMARK    4  A    between atoms: C_7  and  C_8
REMARK    5  A    between atoms: C_8  and  O_10
REMARK    6  A    between atoms: O_10  and  C_11
REMARK    7  A    between atoms: C_11  and  C_12
REMARK    8  A    between atoms: N_14  and  C_15
REMARK    9  A    between atoms: C_21  and  O_22
REMARK   10  A    between atoms: O_22  and  C_23
REMARK                            x       y       z     vdW  Elec       q    Type
REMARK                         _______ _______ _______ _____ _____    ______ ____
ROOT
ATOM      1  C   UNL     1     -40.420-160.780 308.166  0.00  0.00    +0.000 C 
ATOM      2  O   UNL     1     -40.548-160.077 307.166  0.00  0.00    +0.000 OA
ENDROOT
BRANCH   1   6
ATOM      3  C   UNL     1     -38.281-164.502 307.723  0.00  0.00    +0.000 A 
ATOM      4  C   UNL     1     -37.803-163.319 307.183  0.00  0.00    +0.000 A 
ATOM      5  C   UNL     1     -38.486-162.118 307.434  0.00  0.00    +0.000 A 
ATOM      6  C   UNL     1     -39.719-162.094 308.127  0.00  0.00    +0.000 A 
ATOM      7  C   UNL     1     -40.179-163.280 308.707  0.00  0.00    +0.000 A 
ATOM      8  C   UNL     1     -39.407-164.432 308.531  0.00  0.00    +0.000 A 
BRANCH   7   9
ATOM      9  O   UNL     1     -41.315-163.303 309.476  0.00  0.00    +0.000 OA
ATOM     10  C   UNL     1     -41.337-164.212 310.585  0.00  0.00    +0.000 C 
ENDBRANCH   7   9
BRANCH   3  11
ATOM     11  O   UNL     1     -37.528-165.638 307.616  0.00  0.00    +0.000 OA
BRANCH  11  13
ATOM     12  C   UNL     1     -38.713-166.879 305.750  0.00  0.00    +0.000 C 
ATOM     13  C   UNL     1     -37.434-166.285 306.331  0.00  0.00    +0.000 C 
ENDBRANCH  11  13
ENDBRANCH   3  11
ENDBRANCH   1   6
BRANCH   1  14
ATOM     14  O   UNL     1     -40.937-160.480 309.369  0.00  0.00    +0.000 OA
BRANCH  14  15
ATOM     15  C   UNL     1     -42.234-159.870 309.353  0.00  0.00    +0.000 C 
BRANCH  15  16
ATOM     16  C   UNL     1     -42.370-158.615 310.235  0.00  0.00    +0.000 C 
ATOM     17  O   UNL     1     -42.327-157.487 309.738  0.00  0.00    +0.000 OA
ATOM     18  N   UNL     1     -42.618-158.727 311.586  0.00  0.00    +0.000 N 
ATOM     19  H   UNL     1     -42.553-157.826 312.051  0.00  0.00    +0.000 HD
BRANCH  18  20
ATOM     20  C   UNL     1     -42.775-159.924 312.428  0.00  0.00    +0.000 C 
ATOM     21  C   UNL     1     -41.404-160.431 312.926  0.00  0.00    +0.000 C 
ATOM     22  C   UNL     1     -41.540-161.560 313.962  0.00  0.00    +0.000 C 
ATOM     23  C   UNL     1     -42.436-161.179 315.139  0.00  0.00    +0.000 C 
ATOM     24  C   UNL     1     -43.782-160.766 314.627  0.00  0.00    +0.000 C 
ATOM     25  C   UNL     1     -43.632-159.639 313.655  0.00  0.00    +0.000 C 
ENDBRANCH  18  20
ENDBRANCH  15  16
ENDBRANCH  14  15
ENDBRANCH   1  14
TORSDOF 8
ENDMDL
MODEL 5
REMARK VINA RESULT:    -8.479      2.304      4.295
REMARK INTER + INTRA:         -13.237
REMARK INTER:                 -12.211
REMARK INTRA:                  -1.027
REMARK UNBOUND:                -0.792
REMARK  Name = 
REMARK  10 active torsions:
REMARK  status: ('A' for Active; 'I' for Inactive)
REMARK    1  A    between atoms: C_1  and  C_2
REMARK    2  A    between atoms: C_2  and  O_3
REMARK    3  A    between atoms: O_3  and  C_4
REMARK    4  A    between atoms: C_7  and  C_8
REMARK    5  A    between atoms: C_8  and  O_10
REMARK    6  A    between atoms: O_10  and  C_11
REMARK    7  A    between atoms: C_11  and  C_12
REMARK    8  A    between atoms: N_14  and  C_15
REMARK    9  A    between atoms: C_21  and  O_22
REMARK   10  A    between atoms: O_22  and  C_23
REMARK                            x       y       z     vdW  Elec       q    Type
REMARK                         _______ _______ _______ _____ _____    ______ ____
ROOT
ATOM      1  C   UNL     1     -42.257-158.712 311.187  0.00  0.00    +0.000 C 
ATOM      2  O   UNL     1     -42.288-157.494 311.350  0.00  0.00    +0.000 OA
ENDROOT
BRANCH   1   6
ATOM      3  C   UNL     1     -42.457-161.238 314.680  0.00  0.00    +0.000 A 
ATOM      4  C   UNL     1     -43.529-160.454 314.287  0.00  0.00    +0.000 A 
ATOM      5  C   UNL     1     -43.449-159.721 313.092  0.00  0.00    +0.000 A 
ATOM      6  C   UNL     1     -42.258-159.666 312.332  0.00  0.00    +0.000 A 
ATOM      7  C   UNL     1     -41.190-160.489 312.706  0.00  0.00    +0.000 A 
ATOM      8  C   UNL     1     -41.355-161.292 313.838  0.00  0.00    +0.000 A 
BRANCH   7   9
ATOM      9  O   UNL     1     -40.045-160.558 311.953  0.00  0.00    +0.000 OA
ATOM     10  C   UNL     1     -39.241-161.737 312.091  0.00  0.00    +0.000 C 
ENDBRANCH   7   9
BRANCH   3  11
ATOM     11  O   UNL     1     -42.598-162.074 315.753  0.00  0.00    +0.000 OA
BRANCH  11  13
ATOM     12  C   UNL     1     -40.901-162.545 317.574  0.00  0.00    +0.000 C 
ATOM     13  C   UNL     1     -42.026-161.680 317.016  0.00  0.00    +0.000 C 
ENDBRANCH  11  13
ENDBRANCH   3  11
ENDBRANCH   1   6
BRANCH   1  14
ATOM     14  O   UNL     1     -42.160-159.309 309.987  0.00  0.00    +0.000 OA
BRANCH  14  15
ATOM     15  C   UNL     1     -40.972-159.015 309.241  0.00  0.00    +0.000 C 
BRANCH  15  16
ATOM     16  C   UNL     1     -40.920-159.639 307.834  0.00  0.00    +0.000 C 
ATOM     17  O   UNL     1     -41.040-158.937 306.828  0.00  0.00    +0.000 OA
ATOM     18  N   UNL     1     -40.661-160.982 307.669  0.00  0.00    +0.000 N 
ATOM     19  H   UNL     1     -40.787-161.268 306.703  0.00  0.00    +0.000 HD
BRANCH  18  20
ATOM     20  C   UNL     1     -40.422-162.035 308.671  0.00  0.00    +0.000 C 
ATOM     21  C   UNL     1     -41.756-162.588 309.219  0.00  0.00    +0.000 C 
ATOM     22  C   UNL     1     -41.551-163.818 310.121  0.00  0.00    +0.000 C 
ATOM     23  C   UNL     1     -40.747-164.923 309.440  0.00  0.00    +0.000 C 
ATOM     24  C   UNL     1     -39.428-164.374 308.989  0.00  0.00    +0.000 C 
ATOM     25  C   UNL     1     -39.649-163.207 308.079  0.00  0.00    +0.000 C 
ENDBRANCH  18  20
ENDBRANCH  15  16
ENDBRANCH  14  15
ENDBRANCH   1  14
TORSDOF 8
ENDMDL
MODEL 6
REMARK VINA RESULT:    -8.466      4.005      8.228
REMARK INTER + INTRA:         -13.217
REMARK INTER:                 -12.595
REMARK INTRA:                  -0.622
REMARK UNBOUND:                -0.792
REMARK  Name = 
REMARK  10 active torsions:
REMARK  status: ('A' for Active; 'I' for Inactive)
REMARK    1  A    between atoms: C_1  and  C_2
REMARK    2  A    between atoms: C_2  and  O_3
REMARK    3  A    between atoms: O_3  and  C_4
REMARK    4  A    between atoms: C_7  and  C_8
REMARK    5  A    between atoms: C_8  and  O_10
REMARK    6  A    between atoms: O_10  and  C_11
REMARK    7  A    between atoms: C_11  and  C_12
REMARK    8  A    between atoms: N_14  and  C_15
REMARK    9  A    between atoms: C_21  and  O_22
REMARK   10  A    between atoms: O_22  and  C_23
REMARK                            x       y       z     vdW  Elec       q    Type
REMARK                         _______ _______ _______ _____ _____    ______ ____
ROOT
ATOM      1  C   UNL     1     -40.583-160.958 309.690  0.00  0.00    +0.000 C 
ATOM      2  O   UNL     1     -40.303-160.977 310.887  0.00  0.00    +0.000 OA
ENDROOT
BRANCH   1   6
ATOM      3  C   UNL     1     -42.137-157.497 307.633  0.00  0.00    +0.000 A 
ATOM      4  C   UNL     1     -41.312-158.412 306.998  0.00  0.00    +0.000 A 
ATOM      5  C   UNL     1     -40.908-159.570 307.681  0.00  0.00    +0.000 A 
ATOM      6  C   UNL     1     -41.223-159.778 309.044  0.00  0.00    +0.000 A 
ATOM      7  C   UNL     1     -42.088-158.876 309.672  0.00  0.00    +0.000 A 
ATOM      8  C   UNL     1     -42.561-157.798 308.919  0.00  0.00    +0.000 A 
BRANCH   7   9
ATOM      9  O   UNL     1     -42.513-159.076 310.962  0.00  0.00    +0.000 OA
ATOM     10  C   UNL     1     -42.070-158.135 311.949  0.00  0.00    +0.000 C 
ENDBRANCH   7   9
BRANCH   3  11
ATOM     11  O   UNL     1     -42.659-156.458 306.914  0.00  0.00    +0.000 OA
BRANCH  11  13
ATOM     12  C   UNL     1     -44.008-155.734 304.896  0.00  0.00    +0.000 C 
ATOM     13  C   UNL     1     -43.776-156.715 306.040  0.00  0.00    +0.000 C 
ENDBRANCH  11  13
ENDBRANCH   3  11
ENDBRANCH   1   6
BRANCH   1  14
ATOM     14  O   UNL     1     -40.403-161.998 308.857  0.00  0.00    +0.000 OA
BRANCH  14  15
ATOM     15  C   UNL     1     -41.424-163.003 308.889  0.00  0.00    +0.000 C 
BRANCH  15  16
ATOM     16  C   UNL     1     -41.040-164.292 309.639  0.00  0.00    +0.000 C 
ATOM     17  O   UNL     1     -41.542-164.559 310.733  0.00  0.00    +0.000 OA
ATOM     18  N   UNL     1     -40.186-165.211 309.069  0.00  0.00    +0.000 N 
ATOM     19  H   UNL     1     -39.928-165.937 309.729  0.00  0.00    +0.000 HD
BRANCH  18  20
ATOM     20  C   UNL     1     -39.492-165.186 307.770  0.00  0.00    +0.000 C 
ATOM     21  C   UNL     1     -38.028-164.723 307.936  0.00  0.00    +0.000 C 
ATOM     22  C   UNL     1     -37.219-164.870 306.636  0.00  0.00    +0.000 C 
ATOM     23  C   UNL     1     -37.277-166.283 306.058  0.00  0.00    +0.000 C 
ATOM     24  C   UNL     1     -38.707-166.671 305.837  0.00  0.00    +0.000 C 
ATOM     25  C   UNL     1     -39.467-166.565 307.122  0.00  0.00    +0.000 C 
ENDBRANCH  18  20
ENDBRANCH  15  16
ENDBRANCH  14  15
ENDBRANCH   1  14
TORSDOF 8
ENDMDL
MODEL 7
REMARK VINA RESULT:    -8.260      2.895      5.018
REMARK INTER + INTRA:         -12.915
REMARK INTER:                 -12.312
REMARK INTRA:                  -0.603
REMARK UNBOUND:                -0.792
REMARK  Name = 
REMARK  10 active torsions:
REMARK  status: ('A' for Active; 'I' for Inactive)
REMARK    1  A    between atoms: C_1  and  C_2
REMARK    2  A    between atoms: C_2  and  O_3
REMARK    3  A    between atoms: O_3  and  C_4
REMARK    4  A    between atoms: C_7  and  C_8
REMARK    5  A    between atoms: C_8  and  O_10
REMARK    6  A    between atoms: O_10  and  C_11
REMARK    7  A    between atoms: C_11  and  C_12
REMARK    8  A    between atoms: N_14  and  C_15
REMARK    9  A    between atoms: C_21  and  O_22
REMARK   10  A    between atoms: O_22  and  C_23
REMARK                            x       y       z     vdW  Elec       q    Type
REMARK                         _______ _______ _______ _____ _____    ______ ____
ROOT
ATOM      1  C   UNL     1     -41.618-157.904 306.715  0.00  0.00    +0.000 C 
ATOM      2  O   UNL     1     -41.408-158.586 305.714  0.00  0.00    +0.000 OA
ENDROOT
BRANCH   1   6
ATOM      3  C   UNL     1     -41.633-159.256 310.813  0.00  0.00    +0.000 A 
ATOM      4  C   UNL     1     -42.417-158.194 310.394  0.00  0.00    +0.000 A 
ATOM      5  C   UNL     1     -42.449-157.851 309.033  0.00  0.00    +0.000 A 
ATOM      6  C   UNL     1     -41.611-158.485 308.086  0.00  0.00    +0.000 A 
ATOM      7  C   UNL     1     -40.851-159.583 308.501  0.00  0.00    +0.000 A 
ATOM      8  C   UNL     1     -40.938-159.965 309.843  0.00  0.00    +0.000 A 
BRANCH   7   9
ATOM      9  O   UNL     1     -40.095-160.304 307.611  0.00  0.00    +0.000 OA
ATOM     10  C   UNL     1     -39.780-161.658 307.965  0.00  0.00    +0.000 C 
ENDBRANCH   7   9
BRANCH   3  11
ATOM     11  O   UNL     1     -41.730-159.689 312.106  0.00  0.00    +0.000 OA
BRANCH  11  13
ATOM     12  C   UNL     1     -41.283-161.996 313.055  0.00  0.00    +0.000 C 
ATOM     13  C   UNL     1     -40.761-160.640 312.591  0.00  0.00    +0.000 C 
ENDBRANCH  11  13
ENDBRANCH   3  11
ENDBRANCH   1   6
BRANCH   1  14
ATOM     14  O   UNL     1     -41.929-156.597 306.683  0.00  0.00    +0.000 OA
BRANCH  14  15
ATOM     15  C   UNL     1     -43.098-156.255 305.927  0.00  0.00    +0.000 C 
BRANCH  15  16
ATOM     16  C   UNL     1     -44.323-155.860 306.772  0.00  0.00    +0.000 C 
ATOM     17  O   UNL     1     -44.333-154.807 307.413  0.00  0.00    +0.000 OA
ATOM     18  N   UNL     1     -45.461-156.636 306.768  0.00  0.00    +0.000 N 
ATOM     19  H   UNL     1     -46.127-156.321 307.467  0.00  0.00    +0.000 HD
BRANCH  18  20
ATOM     20  C   UNL     1     -45.751-157.895 306.062  0.00  0.00    +0.000 C 
ATOM     21  C   UNL     1     -46.857-158.692 306.789  0.00  0.00    +0.000 C 
ATOM     22  C   UNL     1     -47.322-159.915 305.979  0.00  0.00    +0.000 C 
ATOM     23  C   UNL     1     -47.758-159.554 304.560  0.00  0.00    +0.000 C 
ATOM     24  C   UNL     1     -46.637-158.852 303.858  0.00  0.00    +0.000 C 
ATOM     25  C   UNL     1     -46.228-157.642 304.638  0.00  0.00    +0.000 C 
ENDBRANCH  18  20
ENDBRANCH  15  16
ENDBRANCH  14  15
ENDBRANCH   1  14
TORSDOF 8
ENDMDL
MODEL 8
REMARK VINA RESULT:    -8.228      3.104      5.428
REMARK INTER + INTRA:         -12.869
REMARK INTER:                 -12.229
REMARK INTRA:                  -0.640
REMARK UNBOUND:                -0.792
REMARK  Name = 
REMARK  10 active torsions:
REMARK  status: ('A' for Active; 'I' for Inactive)
REMARK    1  A    between atoms: C_1  and  C_2
REMARK    2  A    between atoms: C_2  and  O_3
REMARK    3  A    between atoms: O_3  and  C_4
REMARK    4  A    between atoms: C_7  and  C_8
REMARK    5  A    between atoms: C_8  and  O_10
REMARK    6  A    between atoms: O_10  and  C_11
REMARK    7  A    between atoms: C_11  and  C_12
REMARK    8  A    between atoms: N_14  and  C_15
REMARK    9  A    between atoms: C_21  and  O_22
REMARK   10  A    between atoms: O_22  and  C_23
REMARK                            x       y       z     vdW  Elec       q    Type
REMARK                         _______ _______ _______ _____ _____    ______ ____
ROOT
ATOM      1  C   UNL     1     -41.329-158.513 307.612  0.00  0.00    +0.000 C 
ATOM      2  O   UNL     1     -40.558-158.067 306.764  0.00  0.00    +0.000 OA
ENDROOT
BRANCH   1   6
ATOM      3  C   UNL     1     -40.547-162.220 309.678  0.00  0.00    +0.000 A 
ATOM      4  C   UNL     1     -40.457-162.122 308.299  0.00  0.00    +0.000 A 
ATOM      5  C   UNL     1     -40.629-160.873 307.681  0.00  0.00    +0.000 A 
ATOM      6  C   UNL     1     -41.009-159.726 308.415  0.00  0.00    +0.000 A 
ATOM      7  C   UNL     1     -41.059-159.815 309.810  0.00  0.00    +0.000 A 
ATOM      8  C   UNL     1     -40.766-161.051 310.393  0.00  0.00    +0.000 A 
BRANCH   7   9
ATOM      9  O   UNL     1     -41.322-158.714 310.586  0.00  0.00    +0.000 OA
ATOM     10  C   UNL     1     -42.127-158.914 311.755  0.00  0.00    +0.000 C 
ENDBRANCH   7   9
BRANCH   3  11
ATOM     11  O   UNL     1     -40.218-163.399 310.287  0.00  0.00    +0.000 OA
BRANCH  11  13
ATOM     12  C   UNL     1     -40.368-165.610 309.058  0.00  0.00    +0.000 C 
ATOM     13  C   UNL     1     -40.997-164.574 309.983  0.00  0.00    +0.000 C 
ENDBRANCH  11  13
ENDBRANCH   3  11
ENDBRANCH   1   6
BRANCH   1  14
ATOM     14  O   UNL     1     -42.547-158.003 307.865  0.00  0.00    +0.000 OA
BRANCH  14  15
ATOM     15  C   UNL     1     -43.013-157.019 306.935  0.00  0.00    +0.000 C 
BRANCH  15  16
ATOM     16  C   UNL     1     -44.341-156.340 307.321  0.00  0.00    +0.000 C 
ATOM     17  O   UNL     1     -44.347-155.275 307.943  0.00  0.00    +0.000 OA
ATOM     18  N   UNL     1     -45.546-156.869 306.916  0.00  0.00    +0.000 N 
ATOM     19  H   UNL     1     -46.328-156.390 307.352  0.00  0.00    +0.000 HD
BRANCH  18  20
ATOM     20  C   UNL     1     -45.837-158.078 306.127  0.00  0.00    +0.000 C 
ATOM     21  C   UNL     1     -46.992-158.885 306.760  0.00  0.00    +0.000 C 
ATOM     22  C   UNL     1     -47.452-160.047 305.863  0.00  0.00    +0.000 C 
ATOM     23  C   UNL     1     -47.819-159.595 304.451  0.00  0.00    +0.000 C 
ATOM     24  C   UNL     1     -46.652-158.885 303.837  0.00  0.00    +0.000 C 
ATOM     25  C   UNL     1     -46.248-157.732 304.701  0.00  0.00    +0.000 C 
ENDBRANCH  18  20
ENDBRANCH  15  16
ENDBRANCH  14  15
ENDBRANCH   1  14
TORSDOF 8
ENDMDL
MODEL 9
REMARK VINA RESULT:    -8.134      3.551      6.018
REMARK INTER + INTRA:         -12.730
REMARK INTER:                 -11.717
REMARK INTRA:                  -1.013
REMARK UNBOUND:                -0.792
REMARK  Name = 
REMARK  10 active torsions:
REMARK  status: ('A' for Active; 'I' for Inactive)
REMARK    1  A    between atoms: C_1  and  C_2
REMARK    2  A    between atoms: C_2  and  O_3
REMARK    3  A    between atoms: O_3  and  C_4
REMARK    4  A    between atoms: C_7  and  C_8
REMARK    5  A    between atoms: C_8  and  O_10
REMARK    6  A    between atoms: O_10  and  C_11
REMARK    7  A    between atoms: C_11  and  C_12
REMARK    8  A    between atoms: N_14  and  C_15
REMARK    9  A    between atoms: C_21  and  O_22
REMARK   10  A    between atoms: O_22  and  C_23
REMARK                            x       y       z     vdW  Elec       q    Type
REMARK                         _______ _______ _______ _____ _____    ______ ____
ROOT
ATOM      1  C   UNL     1     -43.391-155.914 307.988  0.00  0.00    +0.000 C 
ATOM      2  O   UNL     1     -42.804-154.835 307.957  0.00  0.00    +0.000 OA
ENDROOT
BRANCH   1   6
ATOM      3  C   UNL     1     -41.267-159.492 309.136  0.00  0.00    +0.000 A 
ATOM      4  C   UNL     1     -42.047-158.787 310.039  0.00  0.00    +0.000 A 
ATOM      5  C   UNL     1     -42.793-157.683 309.595  0.00  0.00    +0.000 A 
ATOM      6  C   UNL     1     -42.682-157.194 308.273  0.00  0.00    +0.000 A 
ATOM      7  C   UNL     1     -41.928-157.929 307.352  0.00  0.00    +0.000 A 
ATOM      8  C   UNL     1     -41.295-159.088 307.809  0.00  0.00    +0.000 A 
BRANCH   7   9
ATOM      9  O   UNL     1     -41.863-157.564 306.031  0.00  0.00    +0.000 OA
ATOM     10  C   UNL     1     -40.632-156.990 305.570  0.00  0.00    +0.000 C 
ENDBRANCH   7   9
BRANCH   3  11
ATOM     11  O   UNL     1     -40.674-160.658 309.534  0.00  0.00    +0.000 OA
BRANCH  11  13
ATOM     12  C   UNL     1     -42.372-162.522 309.790  0.00  0.00    +0.000 C 
ATOM     13  C   UNL     1     -41.398-161.533 310.422  0.00  0.00    +0.000 C 
ENDBRANCH  11  13
ENDBRANCH   3  11
ENDBRANCH   1   6
BRANCH   1  14
ATOM     14  O   UNL     1     -44.698-156.070 307.716  0.00  0.00    +0.000 OA
BRANCH  14  15
ATOM     15  C   UNL     1     -45.180-155.368 306.564  0.00  0.00    +0.000 C 
BRANCH  15  16
ATOM     16  C   UNL     1     -44.665-155.905 305.216  0.00  0.00    +0.000 C 
ATOM     17  O   UNL     1     -43.650-155.436 304.697  0.00  0.00    +0.000 OA
ATOM     18  N   UNL     1     -45.283-156.971 304.600  0.00  0.00    +0.000 N 
ATOM     19  H   UNL     1     -44.914-157.125 303.667  0.00  0.00    +0.000 HD
BRANCH  18  20
ATOM     20  C   UNL     1     -46.460-157.756 305.011  0.00  0.00    +0.000 C 
ATOM     21  C   UNL     1     -46.927-158.686 303.871  0.00  0.00    +0.000 C 
ATOM     22  C   UNL     1     -48.029-159.659 304.326  0.00  0.00    +0.000 C 
ATOM     23  C   UNL     1     -47.632-160.469 305.558  0.00  0.00    +0.000 C 
ATOM     24  C   UNL     1     -47.259-159.536 306.669  0.00  0.00    +0.000 C 
ATOM     25  C   UNL     1     -46.156-158.629 306.222  0.00  0.00    +0.000 C 
ENDBRANCH  18  20
ENDBRANCH  15  16
ENDBRANCH  14  15
ENDBRANCH   1  14
TORSDOF 8
ENDMDL
MODEL 10
REMARK VINA RESULT:    -8.083      1.998      3.032
REMARK INTER + INTRA:         -12.655
REMARK INTER:                 -12.168
REMARK INTRA:                  -0.487
REMARK UNBOUND:                -0.792
REMARK  Name = 
REMARK  10 active torsions:
REMARK  status: ('A' for Active; 'I' for Inactive)
REMARK    1  A    between atoms: C_1  and  C_2
REMARK    2  A    between atoms: C_2  and  O_3
REMARK    3  A    between atoms: O_3  and  C_4
REMARK    4  A    between atoms: C_7  and  C_8
REMARK    5  A    between atoms: C_8  and  O_10
REMARK    6  A    between atoms: O_10  and  C_11
REMARK    7  A    between atoms: C_11  and  C_12
REMARK    8  A    between atoms: N_14  and  C_15
REMARK    9  A    between atoms: C_21  and  O_22
REMARK   10  A    between atoms: O_22  and  C_23
REMARK                            x       y       z     vdW  Elec       q    Type
REMARK                         _______ _______ _______ _____ _____    ______ ____
ROOT
ATOM      1  C   UNL     1     -41.096-159.296 308.302  0.00  0.00    +0.000 C 
ATOM      2  O   UNL     1     -40.200-159.842 307.661  0.00  0.00    +0.000 OA
ENDROOT
BRANCH   1   6
ATOM      3  C   UNL     1     -42.109-160.469 312.330  0.00  0.00    +0.000 A 
ATOM      4  C   UNL     1     -41.857-159.147 311.998  0.00  0.00    +0.000 A 
ATOM      5  C   UNL     1     -41.624-158.803 310.657  0.00  0.00    +0.000 A 
ATOM      6  C   UNL     1     -41.522-159.784 309.644  0.00  0.00    +0.000 A 
ATOM      7  C   UNL     1     -41.817-161.112 309.971  0.00  0.00    +0.000 A 
ATOM      8  C   UNL     1     -42.159-161.394 311.296  0.00  0.00    +0.000 A 
BRANCH   7   9
ATOM      9  O   UNL     1     -41.835-162.095 309.014  0.00  0.00    +0.000 OA
ATOM     10  C   UNL     1     -40.840-163.123 309.112  0.00  0.00    +0.000 C 
ENDBRANCH   7   9
BRANCH   3  11
ATOM     11  O   UNL     1     -42.496-160.775 313.604  0.00  0.00    +0.000 OA
BRANCH  11  13
ATOM     12  C   UNL     1     -42.098-161.935 315.822  0.00  0.00    +0.000 C 
ATOM     13  C   UNL     1     -41.626-161.592 314.413  0.00  0.00    +0.000 C 
ENDBRANCH  11  13
ENDBRANCH   3  11
ENDBRANCH   1   6
BRANCH   1  14
ATOM     14  O   UNL     1     -41.819-158.257 307.851  0.00  0.00    +0.000 OA
BRANCH  14  15
ATOM     15  C   UNL     1     -41.100-157.290 307.076  0.00  0.00    +0.000 C 
BRANCH  15  16
ATOM     16  C   UNL     1     -41.290-157.409 305.553  0.00  0.00    +0.000 C 
ATOM     17  O   UNL     1     -40.657-158.244 304.902  0.00  0.00    +0.000 OA
ATOM     18  N   UNL     1     -42.225-156.639 304.897  0.00  0.00    +0.000 N 
ATOM     19  H   UNL     1     -42.144-156.735 303.889  0.00  0.00    +0.000 HD
BRANCH  18  20
ATOM     20  C   UNL     1     -43.150-155.618 305.417  0.00  0.00    +0.000 C 
ATOM     21  C   UNL     1     -43.912-154.927 304.265  0.00  0.00    +0.000 C 
ATOM     22  C   UNL     1     -45.023-153.994 304.777  0.00  0.00    +0.000 C 
ATOM     23  C   UNL     1     -45.995-154.696 305.725  0.00  0.00    +0.000 C 
ATOM     24  C   UNL     1     -45.232-155.287 306.871  0.00  0.00    +0.000 C 
ATOM     25  C   UNL     1     -44.186-156.225 306.354  0.00  0.00    +0.000 C 
ENDBRANCH  18  20
ENDBRANCH  15  16
ENDBRANCH  14  15
ENDBRANCH   1  14
TORSDOF 8
ENDMDL
