MODEL 1
REMARK VINA RESULT:   -10.264      0.000      0.000
REMARK INTER + INTRA:         -13.919
REMARK INTER:                 -12.965
REMARK INTRA:                  -0.954
REMARK UNBOUND:                -0.954
REMARK  Name = 
REMARK  7 active torsions:
REMARK  status: ('A' for Active; 'I' for Inactive)
REMARK    1  A    between atoms: C_1  and  C_2
REMARK    2  A    between atoms: C_2  and  C_3
REMARK    3  A    between atoms: C_6  and  S_7
REMARK    4  A    between atoms: S_7  and  C_8
REMARK    5  A    between atoms: C_8  and  C_9
REMARK    6  A    between atoms: N_11  and  C_12
REMARK    7  A    between atoms: N_17  and  C_18
REMARK                            x       y       z     vdW  Elec       q    Type
REMARK                         _______ _______ _______ _____ _____    ______ ____
ROOT
ATOM      1  C   UNL     1     -41.218-158.720 306.954  0.00  0.00    +0.000 A 
ATOM      2  N   UNL     1     -40.365-159.613 307.436  0.00  0.00    +0.000 NA
ATOM      3  N   UNL     1     -40.577-159.716 308.802  0.00  0.00    +0.000 NA
ATOM      4  C   UNL     1     -41.535-158.863 309.114  0.00  0.00    +0.000 A 
ATOM      5  N   UNL     1     -42.024-158.270 307.981  0.00  0.00    +0.000 N 
ENDROOT
BRANCH   5   6
ATOM      6  C   UNL     1     -42.951-157.206 307.947  0.00  0.00    +0.000 A 
ATOM      7  C   UNL     1     -44.228-157.476 307.535  0.00  0.00    +0.000 A 
ATOM      8  C   UNL     1     -45.064-156.373 307.162  0.00  0.00    +0.000 A 
ATOM      9  C   UNL     1     -44.838-155.096 307.537  0.00  0.00    +0.000 A 
ATOM     10  C   UNL     1     -43.662-154.893 308.203  0.00  0.00    +0.000 A 
ATOM     11  C   UNL     1     -42.665-155.894 308.294  0.00  0.00    +0.000 A 
ENDBRANCH   5   6
BRANCH   1  13
ATOM     12  C   UNL     1     -40.664-156.862 305.290  0.00  0.00    +0.000 C 
ATOM     13  C   UNL     1     -41.290-158.222 305.541  0.00  0.00    +0.000 C 
ENDBRANCH   1  13
BRANCH   4  14
ATOM     14  S   UNL     1     -42.330-158.716 310.637  0.00  0.00    +0.000 S 
BRANCH  14  15
ATOM     15  C   UNL     1     -41.112-159.136 312.075  0.00  0.00    +0.000 C 
BRANCH  15  16
ATOM     16  C   UNL     1     -41.194-160.641 312.850  0.00  0.00    +0.000 C 
ATOM     17  O   UNL     1     -41.678-161.083 313.857  0.00  0.00    +0.000 OA
ATOM     18  N   UNL     1     -40.654-161.767 312.429  0.00  0.00    +0.000 N 
ATOM     19  H   UNL     1     -40.843-162.445 313.174  0.00  0.00    +0.000 HD
BRANCH  18  20
ATOM     20  C   UNL     1     -40.804-162.199 311.143  0.00  0.00    +0.000 C 
ATOM     21  C   UNL     1     -39.535-162.495 310.404  0.00  0.00    +0.000 C 
ATOM     22  C   UNL     1     -39.923-163.554 309.453  0.00  0.00    +0.000 C 
ATOM     23  C   UNL     1     -41.089-164.267 310.157  0.00  0.00    +0.000 C 
ATOM     24  C   UNL     1     -41.396-163.534 311.428  0.00  0.00    +0.000 C 
ENDBRANCH  18  20
ENDBRANCH  15  16
ENDBRANCH  14  15
ENDBRANCH   4  14
TORSDOF 6
ENDMDL
MODEL 2
REMARK VINA RESULT:    -9.958      3.046      5.234
REMARK INTER + INTRA:         -13.531
REMARK INTER:                 -12.897
REMARK INTRA:                  -0.634
REMARK UNBOUND:                -0.954
REMARK  Name = 
REMARK  7 active torsions:
REMARK  status: ('A' for Active; 'I' for Inactive)
REMARK    1  A    between atoms: C_1  and  C_2
REMARK    2  A    between atoms: C_2  and  C_3
REMARK    3  A    between atoms: C_6  and  S_7
REMARK    4  A    between atoms: S_7  and  C_8
REMARK    5  A    between atoms: C_8  and  C_9
REMARK    6  A    between atoms: N_11  and  C_12
REMARK    7  A    between atoms: N_17  and  C_18
REMARK                            x       y       z     vdW  Elec       q    Type
REMARK                         _______ _______ _______ _____ _____    ______ ____
ROOT
ATOM      1  C   UNL     1     -40.880-159.777 311.990  0.00  0.00    +0.000 A 
ATOM      2  N   UNL     1     -40.863-160.762 312.877  0.00  0.00    +0.000 NA
ATOM      3  N   UNL     1     -41.286-161.919 312.243  0.00  0.00    +0.000 NA
ATOM      4  C   UNL     1     -41.573-161.598 310.994  0.00  0.00    +0.000 A 
ATOM      5  N   UNL     1     -41.262-160.285 310.764  0.00  0.00    +0.000 N 
ENDROOT
BRANCH   5   6
ATOM      6  C   UNL     1     -41.567-159.564 309.588  0.00  0.00    +0.000 A 
ATOM      7  C   UNL     1     -40.739-159.711 308.508  0.00  0.00    +0.000 A 
ATOM      8  C   UNL     1     -40.825-158.742 307.456  0.00  0.00    +0.000 A 
ATOM      9  C   UNL     1     -41.889-157.935 307.260  0.00  0.00    +0.000 A 
ATOM     10  C   UNL     1     -42.851-158.008 308.228  0.00  0.00    +0.000 A 
ATOM     11  C   UNL     1     -42.645-158.705 309.443  0.00  0.00    +0.000 A 
ENDBRANCH   5   6
BRANCH   1  13
ATOM     12  C   UNL     1     -41.760-157.498 312.739  0.00  0.00    +0.000 C 
ATOM     13  C   UNL     1     -40.586-158.330 312.252  0.00  0.00    +0.000 C 
ENDBRANCH   1  13
BRANCH   4  14
ATOM     14  S   UNL     1     -41.955-162.685 309.711  0.00  0.00    +0.000 S 
BRANCH  14  15
ATOM     15  C   UNL     1     -40.419-163.764 309.263  0.00  0.00    +0.000 C 
BRANCH  15  16
ATOM     16  C   UNL     1     -39.424-163.333 307.961  0.00  0.00    +0.000 C 
ATOM     17  O   UNL     1     -38.832-162.352 307.597  0.00  0.00    +0.000 OA
ATOM     18  N   UNL     1     -39.072-164.109 306.956  0.00  0.00    +0.000 N 
ATOM     19  H   UNL     1     -38.534-163.501 306.329  0.00  0.00    +0.000 HD
BRANCH  18  20
ATOM     20  C   UNL     1     -38.598-165.373 307.155  0.00  0.00    +0.000 C 
ATOM     21  C   UNL     1     -39.025-166.395 306.148  0.00  0.00    +0.000 C 
ATOM     22  C   UNL     1     -37.903-167.353 306.124  0.00  0.00    +0.000 C 
ATOM     23  C   UNL     1     -36.687-166.501 306.518  0.00  0.00    +0.000 C 
ATOM     24  C   UNL     1     -37.163-165.119 306.852  0.00  0.00    +0.000 C 
ENDBRANCH  18  20
ENDBRANCH  15  16
ENDBRANCH  14  15
ENDBRANCH   4  14
TORSDOF 6
ENDMDL
MODEL 3
REMARK VINA RESULT:    -9.602      2.635      7.461
REMARK INTER + INTRA:         -13.081
REMARK INTER:                 -12.403
REMARK INTRA:                  -0.679
REMARK UNBOUND:                -0.954
REMARK  Name = 
REMARK  7 active torsions:
REMARK  status: ('A' for Active; 'I' for Inactive)
REMARK    1  A    between atoms: C_1  and  C_2
REMARK    2  A    between atoms: C_2  and  C_3
REMARK    3  A    between atoms: C_6  and  S_7
REMARK    4  A    between atoms: S_7  and  C_8
REMARK    5  A    between atoms: C_8  and  C_9
REMARK    6  A    between atoms: N_11  and  C_12
REMARK    7  A    between atoms: N_17  and  C_18
REMARK                            x       y       z     vdW  Elec       q    Type
REMARK                         _______ _______ _______ _____ _____    ______ ____
ROOT
ATOM      1  C   UNL     1     -40.101-162.680 309.056  0.00  0.00    +0.000 A 
ATOM      2  N   UNL     1     -39.818-162.426 307.786  0.00  0.00    +0.000 NA
ATOM      3  N   UNL     1     -40.119-161.097 307.536  0.00  0.00    +0.000 NA
ATOM      4  C   UNL     1     -40.599-160.588 308.656  0.00  0.00    +0.000 A 
ATOM      5  N   UNL     1     -40.537-161.518 309.659  0.00  0.00    +0.000 N 
ENDROOT
BRANCH   5   6
ATOM      6  C   UNL     1     -41.092-161.370 310.949  0.00  0.00    +0.000 A 
ATOM      7  C   UNL     1     -42.452-161.253 311.056  0.00  0.00    +0.000 A 
ATOM      8  C   UNL     1     -42.991-160.759 312.289  0.00  0.00    +0.000 A 
ATOM      9  C   UNL     1     -42.318-160.760 313.459  0.00  0.00    +0.000 A 
ATOM     10  C   UNL     1     -41.012-161.152 313.371  0.00  0.00    +0.000 A 
ATOM     11  C   UNL     1     -40.361-161.327 312.126  0.00  0.00    +0.000 A 
ENDBRANCH   5   6
BRANCH   1  13
ATOM     12  C   UNL     1     -41.339-164.730 309.947  0.00  0.00    +0.000 C 
ATOM     13  C   UNL     1     -40.017-164.011 309.744  0.00  0.00    +0.000 C 
ENDBRANCH   1  13
BRANCH   4  14
ATOM     14  S   UNL     1     -40.949-158.929 308.969  0.00  0.00    +0.000 S 
BRANCH  14  15
ATOM     15  C   UNL     1     -42.061-158.200 307.570  0.00  0.00    +0.000 C 
BRANCH  15  16
ATOM     16  C   UNL     1     -41.458-156.997 306.539  0.00  0.00    +0.000 C 
ATOM     17  O   UNL     1     -40.452-156.807 305.909  0.00  0.00    +0.000 OA
ATOM     18  N   UNL     1     -42.071-155.882 306.198  0.00  0.00    +0.000 N 
ATOM     19  H   UNL     1     -41.388-155.370 305.629  0.00  0.00    +0.000 HD
BRANCH  18  20
ATOM     20  C   UNL     1     -43.367-155.876 305.770  0.00  0.00    +0.000 C 
ATOM     21  C   UNL     1     -44.384-155.443 306.780  0.00  0.00    +0.000 C 
ATOM     22  C   UNL     1     -45.452-154.837 305.963  0.00  0.00    +0.000 C 
ATOM     23  C   UNL     1     -44.713-154.322 304.719  0.00  0.00    +0.000 C 
ATOM     24  C   UNL     1     -43.276-154.739 304.814  0.00  0.00    +0.000 C 
ENDBRANCH  18  20
ENDBRANCH  15  16
ENDBRANCH  14  15
ENDBRANCH   4  14
TORSDOF 6
ENDMDL
MODEL 4
REMARK VINA RESULT:    -9.395      2.818      7.934
REMARK INTER + INTRA:         -12.820
REMARK INTER:                 -12.124
REMARK INTRA:                  -0.695
REMARK UNBOUND:                -0.954
REMARK  Name = 
REMARK  7 active torsions:
REMARK  status: ('A' for Active; 'I' for Inactive)
REMARK    1  A    between atoms: C_1  and  C_2
REMARK    2  A    between atoms: C_2  and  C_3
REMARK    3  A    between atoms: C_6  and  S_7
REMARK    4  A    between atoms: S_7  and  C_8
REMARK    5  A    between atoms: C_8  and  C_9
REMARK    6  A    between atoms: N_11  and  C_12
REMARK    7  A    between atoms: N_17  and  C_18
REMARK                            x       y       z     vdW  Elec       q    Type
REMARK                         _______ _______ _______ _____ _____    ______ ____
ROOT
ATOM      1  C   UNL     1     -42.362-159.892 312.352  0.00  0.00    +0.000 A 
ATOM      2  N   UNL     1     -42.363-158.567 312.385  0.00  0.00    +0.000 NA
ATOM      3  N   UNL     1     -41.862-158.107 311.178  0.00  0.00    +0.000 NA
ATOM      4  C   UNL     1     -41.547-159.166 310.456  0.00  0.00    +0.000 A 
ATOM      5  N   UNL     1     -41.912-160.309 311.115  0.00  0.00    +0.000 N 
ENDROOT
BRANCH   5   6
ATOM      6  C   UNL     1     -41.601-161.625 310.709  0.00  0.00    +0.000 A 
ATOM      7  C   UNL     1     -40.335-162.091 310.947  0.00  0.00    +0.000 A 
ATOM      8  C   UNL     1     -39.905-163.262 310.242  0.00  0.00    +0.000 A 
ATOM      9  C   UNL     1     -40.747-164.148 309.667  0.00  0.00    +0.000 A 
ATOM     10  C   UNL     1     -42.063-163.784 309.685  0.00  0.00    +0.000 A 
ATOM     11  C   UNL     1     -42.481-162.488 310.075  0.00  0.00    +0.000 A 
ENDBRANCH   5   6
BRANCH   1  13
ATOM     12  C   UNL     1     -43.947-160.402 314.290  0.00  0.00    +0.000 C 
ATOM     13  C   UNL     1     -42.736-160.817 313.472  0.00  0.00    +0.000 C 
ENDBRANCH   1  13
BRANCH   4  14
ATOM     14  S   UNL     1     -41.065-159.181 308.800  0.00  0.00    +0.000 S 
BRANCH  14  15
ATOM     15  C   UNL     1     -42.203-158.021 307.758  0.00  0.00    +0.000 C 
BRANCH  15  16
ATOM     16  C   UNL     1     -41.556-157.111 306.483  0.00  0.00    +0.000 C 
ATOM     17  O   UNL     1     -40.588-157.165 305.771  0.00  0.00    +0.000 OA
ATOM     18  N   UNL     1     -42.068-156.012 305.969  0.00  0.00    +0.000 N 
ATOM     19  H   UNL     1     -41.380-155.701 305.274  0.00  0.00    +0.000 HD
BRANCH  18  20
ATOM     20  C   UNL     1     -43.385-155.926 305.622  0.00  0.00    +0.000 C 
ATOM     21  C   UNL     1     -44.301-155.385 306.676  0.00  0.00    +0.000 C 
ATOM     22  C   UNL     1     -45.375-154.731 305.904  0.00  0.00    +0.000 C 
ATOM     23  C   UNL     1     -44.683-154.316 304.596  0.00  0.00    +0.000 C 
ATOM     24  C   UNL     1     -43.276-154.833 304.618  0.00  0.00    +0.000 C 
ENDBRANCH  18  20
ENDBRANCH  15  16
ENDBRANCH  14  15
ENDBRANCH   4  14
TORSDOF 6
ENDMDL
