MODEL 1
REMARK VINA RESULT:   -10.266      0.000      0.000
REMARK INTER + INTRA:         -15.096
REMARK INTER:                 -13.867
REMARK INTRA:                  -1.230
REMARK UNBOUND:                -1.230
REMARK  Name = 
REMARK  7 active torsions:
REMARK  status: ('A' for Active; 'I' for Inactive)
REMARK    1  A    between atoms: C_1  and  C_2
REMARK    2  A    between atoms: C_2  and  C_3
REMARK    3  A    between atoms: C_3  and  C_4
REMARK    4  A    between atoms: C_3  and  N_14
REMARK    5  A    between atoms: C_4  and  C_5
REMARK    6  A    between atoms: C_20  and  C_21
REMARK    7  A    between atoms: C_21  and  N_22
REMARK                            x       y       z     vdW  Elec       q    Type
REMARK                         _______ _______ _______ _____ _____    ______ ____
ROOT
ATOM      1  N   UNL     1     101.141 110.046 123.335  0.00  0.00    +0.000 N 
ATOM      2  C   UNL     1     101.947 109.048 123.776  0.00  0.00    +0.000 C 
ATOM      3  O   UNL     1     103.166 109.066 123.541  0.00  0.00    +0.000 OA
ATOM      4  N   UNL     1     101.397 108.071 124.508  0.00  0.00    +0.000 N 
ATOM      5  C   UNL     1     100.198 107.410 124.135  0.00  0.00    +0.000 C 
ATOM      6  C   UNL     1      99.586 107.332 125.465  0.00  0.00    +0.000 C 
ATOM      7  C   UNL     1     100.697 106.930 126.466  0.00  0.00    +0.000 C 
ATOM      8  C   UNL     1     101.911 107.596 125.798  0.00  0.00    +0.000 C 
ATOM      9  H   UNL     1     101.633 110.676 122.715  0.00  0.00    +0.000 HD
ENDROOT
BRANCH   1  10
ATOM     10  C   UNL     1      99.719 110.358 123.615  0.00  0.00    +0.000 C 
BRANCH  10  12
ATOM     11  C   UNL     1     100.238 110.957 126.023  0.00  0.00    +0.000 C 
ATOM     12  C   UNL     1      99.487 111.360 124.760  0.00  0.00    +0.000 C 
ENDBRANCH  10  12
BRANCH  10  13
ATOM     13  C   UNL     1      99.001 110.690 122.295  0.00  0.00    +0.000 C 
BRANCH  13  14
ATOM     14  C   UNL     1      97.567 110.255 122.279  0.00  0.00    +0.000 A 
ATOM     15  C   UNL     1      97.046 108.998 122.038  0.00  0.00    +0.000 A 
ATOM     16  N   UNL     1      95.692 109.045 122.108  0.00  0.00    +0.000 N 
ATOM     17  C   UNL     1      95.299 110.307 122.439  0.00  0.00    +0.000 A 
ATOM     18  C   UNL     1      94.015 110.795 122.637  0.00  0.00    +0.000 A 
ATOM     19  C   UNL     1      93.898 112.145 122.957  0.00  0.00    +0.000 A 
ATOM     20  C   UNL     1      95.023 112.958 123.099  0.00  0.00    +0.000 A 
ATOM     21  C   UNL     1      96.309 112.445 122.912  0.00  0.00    +0.000 A 
ATOM     22  C   UNL     1      96.447 111.091 122.559  0.00  0.00    +0.000 A 
ATOM     23  H   UNL     1      95.086 108.250 121.958  0.00  0.00    +0.000 HD
ENDBRANCH  13  14
ENDBRANCH  10  13
ENDBRANCH   1  10
BRANCH   7  24
ATOM     24  C   UNL     1     100.437 107.154 128.011  0.00  0.00    +0.000 C 
BRANCH  24  25
ATOM     25  N   UNL     1     101.499 107.689 128.950  0.00  0.00    +0.000 NA
ATOM     26  C   UNL     1     101.333 107.209 130.345  0.00  0.00    +0.000 C 
ATOM     27  C   UNL     1     100.134 107.795 131.108  0.00  0.00    +0.000 C 
ATOM     28  O   UNL     1     100.192 109.234 131.101  0.00  0.00    +0.000 OA
ATOM     29  C   UNL     1     100.541 109.779 129.826  0.00  0.00    +0.000 C 
ATOM     30  C   UNL     1     101.660 109.176 129.005  0.00  0.00    +0.000 C 
ENDBRANCH  24  25
ENDBRANCH   7  24
TORSDOF 6
ENDMDL
MODEL 2
REMARK VINA RESULT:   -10.064      2.953      7.530
REMARK INTER + INTRA:         -14.824
REMARK INTER:                 -13.439
REMARK INTRA:                  -1.385
REMARK UNBOUND:                -1.230
REMARK  Name = 
REMARK  7 active torsions:
REMARK  status: ('A' for Active; 'I' for Inactive)
REMARK    1  A    between atoms: C_1  and  C_2
REMARK    2  A    between atoms: C_2  and  C_3
REMARK    3  A    between atoms: C_3  and  C_4
REMARK    4  A    between atoms: C_3  and  N_14
REMARK    5  A    between atoms: C_4  and  C_5
REMARK    6  A    between atoms: C_20  and  C_21
REMARK    7  A    between atoms: C_21  and  N_22
REMARK                            x       y       z     vdW  Elec       q    Type
REMARK                         _______ _______ _______ _____ _____    ______ ____
ROOT
ATOM      1  N   UNL     1      99.460 106.816 125.731  0.00  0.00    +0.000 N 
ATOM      2  C   UNL     1      98.913 106.728 124.494  0.00  0.00    +0.000 C 
ATOM      3  O   UNL     1      98.330 105.693 124.130  0.00  0.00    +0.000 OA
ATOM      4  N   UNL     1      98.980 107.802 123.698  0.00  0.00    +0.000 N 
ATOM      5  C   UNL     1     100.175 108.539 123.496  0.00  0.00    +0.000 C 
ATOM      6  C   UNL     1      99.592 109.884 123.520  0.00  0.00    +0.000 C 
ATOM      7  C   UNL     1      98.279 109.836 122.700  0.00  0.00    +0.000 C 
ATOM      8  C   UNL     1      97.841 108.390 122.982  0.00  0.00    +0.000 C 
ATOM      9  H   UNL     1      99.442 105.927 126.212  0.00  0.00    +0.000 HD
ENDROOT
BRANCH   1  10
ATOM     10  C   UNL     1     100.045 107.962 126.469  0.00  0.00    +0.000 C 
BRANCH  10  12
ATOM     11  C   UNL     1      99.813 108.298 128.972  0.00  0.00    +0.000 C 
ATOM     12  C   UNL     1      99.169 108.515 127.608  0.00  0.00    +0.000 C 
ENDBRANCH  10  12
BRANCH  10  13
ATOM     13  C   UNL     1     101.496 107.631 126.857  0.00  0.00    +0.000 C 
BRANCH  13  14
ATOM     14  C   UNL     1     102.498 108.552 126.229  0.00  0.00    +0.000 A 
ATOM     15  C   UNL     1     103.432 108.276 125.249  0.00  0.00    +0.000 A 
ATOM     16  N   UNL     1     104.150 109.394 124.975  0.00  0.00    +0.000 N 
ATOM     17  C   UNL     1     103.680 110.428 125.727  0.00  0.00    +0.000 A 
ATOM     18  C   UNL     1     104.105 111.750 125.752  0.00  0.00    +0.000 A 
ATOM     19  C   UNL     1     103.450 112.604 126.635  0.00  0.00    +0.000 A 
ATOM     20  C   UNL     1     102.399 112.155 127.436  0.00  0.00    +0.000 A 
ATOM     21  C   UNL     1     101.975 110.825 127.384  0.00  0.00    +0.000 A 
ATOM     22  C   UNL     1     102.641 109.940 126.520  0.00  0.00    +0.000 A 
ATOM     23  H   UNL     1     104.899 109.438 124.299  0.00  0.00    +0.000 HD
ENDBRANCH  13  14
ENDBRANCH  10  13
ENDBRANCH   1  10
BRANCH   7  24
ATOM     24  C   UNL     1      97.237 111.015 122.877  0.00  0.00    +0.000 C 
BRANCH  24  25
ATOM     25  N   UNL     1      96.269 111.421 121.784  0.00  0.00    +0.000 NA
ATOM     26  C   UNL     1      95.695 112.774 121.995  0.00  0.00    +0.000 C 
ATOM     27  C   UNL     1      94.690 112.893 123.152  0.00  0.00    +0.000 C 
ATOM     28  O   UNL     1      93.623 111.940 122.988  0.00  0.00    +0.000 OA
ATOM     29  C   UNL     1      94.080 110.644 122.591  0.00  0.00    +0.000 C 
ATOM     30  C   UNL     1      95.131 110.489 121.514  0.00  0.00    +0.000 C 
ENDBRANCH  24  25
ENDBRANCH   7  24
TORSDOF 6
ENDMDL
MODEL 3
REMARK VINA RESULT:    -9.650      2.505      3.625
REMARK INTER + INTRA:         -14.264
REMARK INTER:                 -13.217
REMARK INTRA:                  -1.047
REMARK UNBOUND:                -1.230
REMARK  Name = 
REMARK  7 active torsions:
REMARK  status: ('A' for Active; 'I' for Inactive)
REMARK    1  A    between atoms: C_1  and  C_2
REMARK    2  A    between atoms: C_2  and  C_3
REMARK    3  A    between atoms: C_3  and  C_4
REMARK    4  A    between atoms: C_3  and  N_14
REMARK    5  A    between atoms: C_4  and  C_5
REMARK    6  A    between atoms: C_20  and  C_21
REMARK    7  A    between atoms: C_21  and  N_22
REMARK                            x       y       z     vdW  Elec       q    Type
REMARK                         _______ _______ _______ _____ _____    ______ ____
ROOT
ATOM      1  N   UNL     1     101.816 108.993 123.837  0.00  0.00    +0.000 N 
ATOM      2  C   UNL     1     102.858 108.686 124.649  0.00  0.00    +0.000 C 
ATOM      3  O   UNL     1     104.025 108.937 124.308  0.00  0.00    +0.000 OA
ATOM      4  N   UNL     1     102.586 108.150 125.845  0.00  0.00    +0.000 N 
ATOM      5  C   UNL     1     101.682 107.070 126.019  0.00  0.00    +0.000 C 
ATOM      6  C   UNL     1     101.030 107.544 127.244  0.00  0.00    +0.000 C 
ATOM      7  C   UNL     1     102.137 108.101 128.174  0.00  0.00    +0.000 C 
ATOM      8  C   UNL     1     103.128 108.626 127.123  0.00  0.00    +0.000 C 
ATOM      9  H   UNL     1     102.132 109.300 122.926  0.00  0.00    +0.000 HD
ENDROOT
BRANCH   1  10
ATOM     10  C   UNL     1     100.351 108.965 124.062  0.00  0.00    +0.000 C 
BRANCH  10  12
ATOM     11  C   UNL     1      99.042 111.134 123.978  0.00  0.00    +0.000 C 
ATOM     12  C   UNL     1      99.796 110.153 124.868  0.00  0.00    +0.000 C 
ENDBRANCH  10  12
BRANCH  10  13
ATOM     13  C   UNL     1      99.636 108.681 122.730  0.00  0.00    +0.000 C 
BRANCH  13  14
ATOM     14  C   UNL     1      99.022 107.315 122.670  0.00  0.00    +0.000 A 
ATOM     15  C   UNL     1      99.351 106.187 123.397  0.00  0.00    +0.000 A 
ATOM     16  N   UNL     1      98.552 105.156 123.023  0.00  0.00    +0.000 N 
ATOM     17  C   UNL     1      97.662 105.590 122.086  0.00  0.00    +0.000 A 
ATOM     18  C   UNL     1      96.655 104.879 121.448  0.00  0.00    +0.000 A 
ATOM     19  C   UNL     1      95.891 105.574 120.513  0.00  0.00    +0.000 A 
ATOM     20  C   UNL     1      96.114 106.926 120.254  0.00  0.00    +0.000 A 
ATOM     21  C   UNL     1      97.122 107.628 120.918  0.00  0.00    +0.000 A 
ATOM     22  C   UNL     1      97.923 106.939 121.845  0.00  0.00    +0.000 A 
ATOM     23  H   UNL     1      98.609 104.223 123.406  0.00  0.00    +0.000 HD
ENDBRANCH  13  14
ENDBRANCH  10  13
ENDBRANCH   1  10
BRANCH   7  24
ATOM     24  C   UNL     1     101.709 109.034 129.378  0.00  0.00    +0.000 C 
BRANCH  24  25
ATOM     25  N   UNL     1     100.283 109.505 129.581  0.00  0.00    +0.000 NA
ATOM     26  C   UNL     1     100.198 110.928 129.997  0.00  0.00    +0.000 C 
ATOM     27  C   UNL     1     100.671 111.227 131.429  0.00  0.00    +0.000 C 
ATOM     28  O   UNL     1      99.955 110.409 132.373  0.00  0.00    +0.000 OA
ATOM     29  C   UNL     1      99.821 109.049 131.953  0.00  0.00    +0.000 C 
ATOM     30  C   UNL     1      99.440 108.711 130.528  0.00  0.00    +0.000 C 
ENDBRANCH  24  25
ENDBRANCH   7  24
TORSDOF 6
ENDMDL
MODEL 4
REMARK VINA RESULT:    -9.359      2.424      7.414
REMARK INTER + INTRA:         -13.871
REMARK INTER:                 -12.285
REMARK INTRA:                  -1.586
REMARK UNBOUND:                -1.230
REMARK  Name = 
REMARK  7 active torsions:
REMARK  status: ('A' for Active; 'I' for Inactive)
REMARK    1  A    between atoms: C_1  and  C_2
REMARK    2  A    between atoms: C_2  and  C_3
REMARK    3  A    between atoms: C_3  and  C_4
REMARK    4  A    between atoms: C_3  and  N_14
REMARK    5  A    between atoms: C_4  and  C_5
REMARK    6  A    between atoms: C_20  and  C_21
REMARK    7  A    between atoms: C_21  and  N_22
REMARK                            x       y       z     vdW  Elec       q    Type
REMARK                         _______ _______ _______ _____ _____    ______ ____
ROOT
ATOM      1  N   UNL     1     102.809 108.168 125.384  0.00  0.00    +0.000 N 
ATOM      2  C   UNL     1     102.746 108.969 124.291  0.00  0.00    +0.000 C 
ATOM      3  O   UNL     1     103.591 108.876 123.386  0.00  0.00    +0.000 OA
ATOM      4  N   UNL     1     101.723 109.827 124.198  0.00  0.00    +0.000 N 
ATOM      5  C   UNL     1     101.322 110.668 125.268  0.00  0.00    +0.000 C 
ATOM      6  C   UNL     1      99.872 110.537 125.098  0.00  0.00    +0.000 C 
ATOM      7  C   UNL     1      99.572 110.613 123.581  0.00  0.00    +0.000 C 
ATOM      8  C   UNL     1     100.855 109.977 123.024  0.00  0.00    +0.000 C 
ATOM      9  H   UNL     1     103.665 107.630 125.403  0.00  0.00    +0.000 HD
ENDROOT
BRANCH   1  10
ATOM     10  C   UNL     1     101.858 107.951 126.501  0.00  0.00    +0.000 C 
BRANCH  10  12
ATOM     11  C   UNL     1      99.597 106.890 126.062  0.00  0.00    +0.000 C 
ATOM     12  C   UNL     1     101.056 106.640 126.425  0.00  0.00    +0.000 C 
ENDBRANCH  10  12
BRANCH  10  13
ATOM     13  C   UNL     1     102.575 108.208 127.837  0.00  0.00    +0.000 C 
BRANCH  13  14
ATOM     14  C   UNL     1     101.780 109.062 128.778  0.00  0.00    +0.000 A 
ATOM     15  C   UNL     1     101.733 110.440 128.866  0.00  0.00    +0.000 A 
ATOM     16  N   UNL     1     100.892 110.804 129.867  0.00  0.00    +0.000 N 
ATOM     17  C   UNL     1     100.340 109.689 130.421  0.00  0.00    +0.000 A 
ATOM     18  C   UNL     1      99.415 109.597 131.453  0.00  0.00    +0.000 A 
ATOM     19  C   UNL     1      99.026 108.316 131.835  0.00  0.00    +0.000 A 
ATOM     20  C   UNL     1      99.523 107.183 131.191  0.00  0.00    +0.000 A 
ATOM     21  C   UNL     1     100.440 107.296 130.144  0.00  0.00    +0.000 A 
ATOM     22  C   UNL     1     100.868 108.579 129.761  0.00  0.00    +0.000 A 
ATOM     23  H   UNL     1     100.702 111.760 130.130  0.00  0.00    +0.000 HD
ENDBRANCH  13  14
ENDBRANCH  10  13
ENDBRANCH   1  10
BRANCH   7  24
ATOM     24  C   UNL     1      98.163 110.108 123.065  0.00  0.00    +0.000 C 
BRANCH  24  25
ATOM     25  N   UNL     1      98.014 108.954 122.096  0.00  0.00    +0.000 NA
ATOM     26  C   UNL     1      96.741 109.000 121.333  0.00  0.00    +0.000 C 
ATOM     27  C   UNL     1      95.472 108.694 122.145  0.00  0.00    +0.000 C 
ATOM     28  O   UNL     1      95.593 107.416 122.797  0.00  0.00    +0.000 OA
ATOM     29  C   UNL     1      96.873 107.208 123.399  0.00  0.00    +0.000 C 
ATOM     30  C   UNL     1      98.143 107.576 122.666  0.00  0.00    +0.000 C 
ENDBRANCH  24  25
ENDBRANCH   7  24
TORSDOF 6
ENDMDL
MODEL 5
REMARK VINA RESULT:    -9.328      2.574      4.186
REMARK INTER + INTRA:         -13.829
REMARK INTER:                 -12.804
REMARK INTRA:                  -1.025
REMARK UNBOUND:                -1.230
REMARK  Name = 
REMARK  7 active torsions:
REMARK  status: ('A' for Active; 'I' for Inactive)
REMARK    1  A    between atoms: C_1  and  C_2
REMARK    2  A    between atoms: C_2  and  C_3
REMARK    3  A    between atoms: C_3  and  C_4
REMARK    4  A    between atoms: C_3  and  N_14
REMARK    5  A    between atoms: C_4  and  C_5
REMARK    6  A    between atoms: C_20  and  C_21
REMARK    7  A    between atoms: C_21  and  N_22
REMARK                            x       y       z     vdW  Elec       q    Type
REMARK                         _______ _______ _______ _____ _____    ______ ____
ROOT
ATOM      1  N   UNL     1      99.660 109.817 124.678  0.00  0.00    +0.000 N 
ATOM      2  C   UNL     1     100.083 110.880 125.407  0.00  0.00    +0.000 C 
ATOM      3  O   UNL     1      99.536 111.988 125.290  0.00  0.00    +0.000 OA
ATOM      4  N   UNL     1     101.074 110.685 126.286  0.00  0.00    +0.000 N 
ATOM      5  C   UNL     1     102.267 109.990 125.962  0.00  0.00    +0.000 C 
ATOM      6  C   UNL     1     102.410 109.236 127.211  0.00  0.00    +0.000 C 
ATOM      7  C   UNL     1     102.084 110.202 128.377  0.00  0.00    +0.000 C 
ATOM      8  C   UNL     1     101.043 111.104 127.693  0.00  0.00    +0.000 C 
ATOM      9  H   UNL     1      98.980 110.090 123.981  0.00  0.00    +0.000 HD
ENDROOT
BRANCH   1  10
ATOM     10  C   UNL     1     100.007 108.377 124.745  0.00  0.00    +0.000 C 
BRANCH  10  12
ATOM     11  C   UNL     1      99.997 106.591 126.544  0.00  0.00    +0.000 C 
ATOM     12  C   UNL     1      99.148 107.547 125.715  0.00  0.00    +0.000 C 
ENDBRANCH  10  12
BRANCH  10  13
ATOM     13  C   UNL     1     100.118 107.814 123.318  0.00  0.00    +0.000 C 
BRANCH  13  14
ATOM     14  C   UNL     1      98.802 107.754 122.604  0.00  0.00    +0.000 A 
ATOM     15  C   UNL     1      98.005 108.796 122.170  0.00  0.00    +0.000 A 
ATOM     16  N   UNL     1      96.888 108.300 121.579  0.00  0.00    +0.000 N 
ATOM     17  C   UNL     1      96.948 106.939 121.572  0.00  0.00    +0.000 A 
ATOM     18  C   UNL     1      96.035 106.031 121.052  0.00  0.00    +0.000 A 
ATOM     19  C   UNL     1      96.341 104.680 121.194  0.00  0.00    +0.000 A 
ATOM     20  C   UNL     1      97.524 104.264 121.806  0.00  0.00    +0.000 A 
ATOM     21  C   UNL     1      98.439 105.193 122.307  0.00  0.00    +0.000 A 
ATOM     22  C   UNL     1      98.134 106.561 122.200  0.00  0.00    +0.000 A 
ATOM     23  H   UNL     1      96.149 108.869 121.191  0.00  0.00    +0.000 HD
ENDBRANCH  13  14
ENDBRANCH  10  13
ENDBRANCH   1  10
BRANCH   7  24
ATOM     24  C   UNL     1     101.766 109.585 129.800  0.00  0.00    +0.000 C 
BRANCH  24  25
ATOM     25  N   UNL     1     100.805 108.430 129.993  0.00  0.00    +0.000 NA
ATOM     26  C   UNL     1      99.547 108.832 130.672  0.00  0.00    +0.000 C 
ATOM     27  C   UNL     1      99.682 109.181 132.163  0.00  0.00    +0.000 C 
ATOM     28  O   UNL     1     100.283 108.086 132.880  0.00  0.00    +0.000 OA
ATOM     29  C   UNL     1     101.397 107.508 132.195  0.00  0.00    +0.000 C 
ATOM     30  C   UNL     1     101.335 107.228 130.710  0.00  0.00    +0.000 C 
ENDBRANCH  24  25
ENDBRANCH   7  24
TORSDOF 6
ENDMDL
MODEL 6
REMARK VINA RESULT:    -9.224      2.029      2.986
REMARK INTER + INTRA:         -13.689
REMARK INTER:                 -12.227
REMARK INTRA:                  -1.462
REMARK UNBOUND:                -1.230
REMARK  Name = 
REMARK  7 active torsions:
REMARK  status: ('A' for Active; 'I' for Inactive)
REMARK    1  A    between atoms: C_1  and  C_2
REMARK    2  A    between atoms: C_2  and  C_3
REMARK    3  A    between atoms: C_3  and  C_4
REMARK    4  A    between atoms: C_3  and  N_14
REMARK    5  A    between atoms: C_4  and  C_5
REMARK    6  A    between atoms: C_20  and  C_21
REMARK    7  A    between atoms: C_21  and  N_22
REMARK                            x       y       z     vdW  Elec       q    Type
REMARK                         _______ _______ _______ _____ _____    ______ ____
ROOT
ATOM      1  N   UNL     1     102.192 110.292 124.646  0.00  0.00    +0.000 N 
ATOM      2  C   UNL     1     103.103 109.724 125.474  0.00  0.00    +0.000 C 
ATOM      3  O   UNL     1     104.274 110.135 125.508  0.00  0.00    +0.000 OA
ATOM      4  N   UNL     1     102.691 108.742 126.285  0.00  0.00    +0.000 N 
ATOM      5  C   UNL     1     101.904 107.650 125.835  0.00  0.00    +0.000 C 
ATOM      6  C   UNL     1     100.995 107.566 126.983  0.00  0.00    +0.000 C 
ATOM      7  C   UNL     1     101.847 107.743 128.264  0.00  0.00    +0.000 C 
ATOM      8  C   UNL     1     102.939 108.684 127.730  0.00  0.00    +0.000 C 
ATOM      9  H   UNL     1     102.624 110.951 124.012  0.00  0.00    +0.000 HD
ENDROOT
BRANCH   1  10
ATOM     10  C   UNL     1     100.724 110.119 124.532  0.00  0.00    +0.000 C 
BRANCH  10  12
ATOM     11  C   UNL     1     100.081 111.080 126.789  0.00  0.00    +0.000 C 
ATOM     12  C   UNL     1      99.887 111.173 125.280  0.00  0.00    +0.000 C 
ENDBRANCH  10  12
BRANCH  10  13
ATOM     13  C   UNL     1     100.348 109.909 123.055  0.00  0.00    +0.000 C 
BRANCH  13  14
ATOM     14  C   UNL     1      98.910 109.534 122.861  0.00  0.00    +0.000 A 
ATOM     15  C   UNL     1      97.908 110.248 122.233  0.00  0.00    +0.000 A 
ATOM     16  N   UNL     1      96.746 109.549 122.291  0.00  0.00    +0.000 N 
ATOM     17  C   UNL     1      96.968 108.354 122.908  0.00  0.00    +0.000 A 
ATOM     18  C   UNL     1      96.070 107.326 123.160  0.00  0.00    +0.000 A 
ATOM     19  C   UNL     1      96.566 106.208 123.828  0.00  0.00    +0.000 A 
ATOM     20  C   UNL     1      97.908 106.120 124.199  0.00  0.00    +0.000 A 
ATOM     21  C   UNL     1      98.800 107.159 123.921  0.00  0.00    +0.000 A 
ATOM     22  C   UNL     1      98.313 108.308 123.274  0.00  0.00    +0.000 A 
ATOM     23  H   UNL     1      95.868 109.871 121.909  0.00  0.00    +0.000 HD
ENDBRANCH  13  14
ENDBRANCH  10  13
ENDBRANCH   1  10
BRANCH   7  24
ATOM     24  C   UNL     1     101.107 108.096 129.618  0.00  0.00    +0.000 C 
BRANCH  24  25
ATOM     25  N   UNL     1     101.704 109.021 130.659  0.00  0.00    +0.000 NA
ATOM     26  C   UNL     1     101.651 108.458 132.031  0.00  0.00    +0.000 C 
ATOM     27  C   UNL     1     100.251 108.386 132.663  0.00  0.00    +0.000 C 
ATOM     28  O   UNL     1      99.633 109.687 132.656  0.00  0.00    +0.000 OA
ATOM     29  C   UNL     1      99.805 110.386 131.421  0.00  0.00    +0.000 C 
ATOM     30  C   UNL     1     101.147 110.408 130.723  0.00  0.00    +0.000 C 
ENDBRANCH  24  25
ENDBRANCH   7  24
TORSDOF 6
ENDMDL
MODEL 7
REMARK VINA RESULT:    -9.088      2.865      7.716
REMARK INTER + INTRA:         -13.505
REMARK INTER:                 -12.378
REMARK INTRA:                  -1.126
REMARK UNBOUND:                -1.230
REMARK  Name = 
REMARK  7 active torsions:
REMARK  status: ('A' for Active; 'I' for Inactive)
REMARK    1  A    between atoms: C_1  and  C_2
REMARK    2  A    between atoms: C_2  and  C_3
REMARK    3  A    between atoms: C_3  and  C_4
REMARK    4  A    between atoms: C_3  and  N_14
REMARK    5  A    between atoms: C_4  and  C_5
REMARK    6  A    between atoms: C_20  and  C_21
REMARK    7  A    between atoms: C_21  and  N_22
REMARK                            x       y       z     vdW  Elec       q    Type
REMARK                         _______ _______ _______ _____ _____    ______ ____
ROOT
ATOM      1  N   UNL     1      98.746 107.218 123.907  0.00  0.00    +0.000 N 
ATOM      2  C   UNL     1      97.520 106.796 123.510  0.00  0.00    +0.000 C 
ATOM      3  O   UNL     1      96.888 105.963 124.180  0.00  0.00    +0.000 OA
ATOM      4  N   UNL     1      96.995 107.337 122.404  0.00  0.00    +0.000 N 
ATOM      5  C   UNL     1      97.723 107.476 121.194  0.00  0.00    +0.000 C 
ATOM      6  C   UNL     1      97.245 108.810 120.819  0.00  0.00    +0.000 C 
ATOM      7  C   UNL     1      95.722 108.854 121.099  0.00  0.00    +0.000 C 
ATOM      8  C   UNL     1      95.645 107.902 122.304  0.00  0.00    +0.000 C 
ATOM      9  H   UNL     1      99.089 106.681 124.693  0.00  0.00    +0.000 HD
ENDROOT
BRANCH   1  10
ATOM     10  C   UNL     1      99.622 108.305 123.406  0.00  0.00    +0.000 C 
BRANCH  10  12
ATOM     11  C   UNL     1      99.618 110.733 122.679  0.00  0.00    +0.000 C 
ATOM     12  C   UNL     1      99.131 109.730 123.717  0.00  0.00    +0.000 C 
ENDBRANCH  10  12
BRANCH  10  13
ATOM     13  C   UNL     1     101.078 108.009 123.805  0.00  0.00    +0.000 C 
BRANCH  13  14
ATOM     14  C   UNL     1     101.317 108.111 125.282  0.00  0.00    +0.000 A 
ATOM     15  C   UNL     1     101.215 107.125 126.244  0.00  0.00    +0.000 A 
ATOM     16  N   UNL     1     101.505 107.647 127.463  0.00  0.00    +0.000 N 
ATOM     17  C   UNL     1     101.845 108.959 127.323  0.00  0.00    +0.000 A 
ATOM     18  C   UNL     1     102.232 109.866 128.300  0.00  0.00    +0.000 A 
ATOM     19  C   UNL     1     102.513 111.163 127.878  0.00  0.00    +0.000 A 
ATOM     20  C   UNL     1     102.435 111.522 126.532  0.00  0.00    +0.000 A 
ATOM     21  C   UNL     1     102.059 110.590 125.561  0.00  0.00    +0.000 A 
ATOM     22  C   UNL     1     101.744 109.283 125.970  0.00  0.00    +0.000 A 
ATOM     23  H   UNL     1     101.488 107.122 128.326  0.00  0.00    +0.000 HD
ENDBRANCH  13  14
ENDBRANCH  10  13
ENDBRANCH   1  10
BRANCH   7  24
ATOM     24  C   UNL     1      95.010 110.266 121.173  0.00  0.00    +0.000 C 
BRANCH  24  25
ATOM     25  N   UNL     1      94.828 111.022 122.473  0.00  0.00    +0.000 NA
ATOM     26  C   UNL     1      93.460 111.578 122.631  0.00  0.00    +0.000 C 
ATOM     27  C   UNL     1      93.114 112.758 121.709  0.00  0.00    +0.000 C 
ATOM     28  O   UNL     1      94.081 113.814 121.865  0.00  0.00    +0.000 OA
ATOM     29  C   UNL     1      95.429 113.341 121.918  0.00  0.00    +0.000 C 
ATOM     30  C   UNL     1      95.794 112.130 122.747  0.00  0.00    +0.000 C 
ENDBRANCH  24  25
ENDBRANCH   7  24
TORSDOF 6
ENDMDL
MODEL 8
REMARK VINA RESULT:    -9.011      3.315      7.421
REMARK INTER + INTRA:         -13.401
REMARK INTER:                 -12.388
REMARK INTRA:                  -1.013
REMARK UNBOUND:                -1.230
REMARK  Name = 
REMARK  7 active torsions:
REMARK  status: ('A' for Active; 'I' for Inactive)
REMARK    1  A    between atoms: C_1  and  C_2
REMARK    2  A    between atoms: C_2  and  C_3
REMARK    3  A    between atoms: C_3  and  C_4
REMARK    4  A    between atoms: C_3  and  N_14
REMARK    5  A    between atoms: C_4  and  C_5
REMARK    6  A    between atoms: C_20  and  C_21
REMARK    7  A    between atoms: C_21  and  N_22
REMARK                            x       y       z     vdW  Elec       q    Type
REMARK                         _______ _______ _______ _____ _____    ______ ____
ROOT
ATOM      1  N   UNL     1     101.622 110.207 125.597  0.00  0.00    +0.000 N 
ATOM      2  C   UNL     1     100.342 110.236 125.148  0.00  0.00    +0.000 C 
ATOM      3  O   UNL     1      99.855 111.281 124.688  0.00  0.00    +0.000 OA
ATOM      4  N   UNL     1      99.640 109.097 125.174  0.00  0.00    +0.000 N 
ATOM      5  C   UNL     1      99.589 108.249 126.310  0.00  0.00    +0.000 C 
ATOM      6  C   UNL     1      99.672 106.963 125.609  0.00  0.00    +0.000 C 
ATOM      7  C   UNL     1      98.752 107.052 124.366  0.00  0.00    +0.000 C 
ATOM      8  C   UNL     1      98.886 108.548 124.041  0.00  0.00    +0.000 C 
ATOM      9  H   UNL     1     102.029 111.132 125.625  0.00  0.00    +0.000 HD
ENDROOT
BRANCH   1  10
ATOM     10  C   UNL     1     102.489 109.082 126.023  0.00  0.00    +0.000 C 
BRANCH  10  12
ATOM     11  C   UNL     1     102.901 108.804 123.537  0.00  0.00    +0.000 C 
ATOM     12  C   UNL     1     103.444 108.552 124.939  0.00  0.00    +0.000 C 
ENDBRANCH  10  12
BRANCH  10  13
ATOM     13  C   UNL     1     103.150 109.430 127.369  0.00  0.00    +0.000 C 
BRANCH  13  14
ATOM     14  C   UNL     1     102.161 109.809 128.430  0.00  0.00    +0.000 A 
ATOM     15  C   UNL     1     101.725 111.068 128.795  0.00  0.00    +0.000 A 
ATOM     16  N   UNL     1     100.833 110.963 129.813  0.00  0.00    +0.000 N 
ATOM     17  C   UNL     1     100.631 109.647 130.103  0.00  0.00    +0.000 A 
ATOM     18  C   UNL     1      99.790 109.085 131.054  0.00  0.00    +0.000 A 
ATOM     19  C   UNL     1      99.789 107.696 131.149  0.00  0.00    +0.000 A 
ATOM     20  C   UNL     1     100.577 106.909 130.308  0.00  0.00    +0.000 A 
ATOM     21  C   UNL     1     101.404 107.493 129.346  0.00  0.00    +0.000 A 
ATOM     22  C   UNL     1     101.442 108.895 129.253  0.00  0.00    +0.000 A 
ATOM     23  H   UNL     1     100.382 111.750 130.258  0.00  0.00    +0.000 HD
ENDBRANCH  13  14
ENDBRANCH  10  13
ENDBRANCH   1  10
BRANCH   7  24
ATOM     24  C   UNL     1      98.938 105.983 123.214  0.00  0.00    +0.000 C 
BRANCH  24  25
ATOM     25  N   UNL     1      97.956 104.854 122.979  0.00  0.00    +0.000 NA
ATOM     26  C   UNL     1      97.445 104.813 121.585  0.00  0.00    +0.000 C 
ATOM     27  C   UNL     1      96.482 105.947 121.199  0.00  0.00    +0.000 C 
ATOM     28  O   UNL     1      95.372 105.993 122.115  0.00  0.00    +0.000 OA
ATOM     29  C   UNL     1      95.761 105.843 123.482  0.00  0.00    +0.000 C 
ATOM     30  C   UNL     1      96.771 104.794 123.891  0.00  0.00    +0.000 C 
ENDBRANCH  24  25
ENDBRANCH   7  24
TORSDOF 6
ENDMDL
MODEL 9
REMARK VINA RESULT:    -8.911      1.566      2.775
REMARK INTER + INTRA:         -13.266
REMARK INTER:                 -12.017
REMARK INTRA:                  -1.249
REMARK UNBOUND:                -1.230
REMARK  Name = 
REMARK  7 active torsions:
REMARK  status: ('A' for Active; 'I' for Inactive)
REMARK    1  A    between atoms: C_1  and  C_2
REMARK    2  A    between atoms: C_2  and  C_3
REMARK    3  A    between atoms: C_3  and  C_4
REMARK    4  A    between atoms: C_3  and  N_14
REMARK    5  A    between atoms: C_4  and  C_5
REMARK    6  A    between atoms: C_20  and  C_21
REMARK    7  A    between atoms: C_21  and  N_22
REMARK                            x       y       z     vdW  Elec       q    Type
REMARK                         _______ _______ _______ _____ _____    ______ ____
ROOT
ATOM      1  N   UNL     1     100.366 110.037 122.862  0.00  0.00    +0.000 N 
ATOM      2  C   UNL     1     101.319 109.291 123.474  0.00  0.00    +0.000 C 
ATOM      3  O   UNL     1     102.521 109.458 123.212  0.00  0.00    +0.000 OA
ATOM      4  N   UNL     1     100.927 108.404 124.398  0.00  0.00    +0.000 N 
ATOM      5  C   UNL     1      99.857 107.497 124.191  0.00  0.00    +0.000 C 
ATOM      6  C   UNL     1      99.252 107.588 125.524  0.00  0.00    +0.000 C 
ATOM      7  C   UNL     1     100.404 107.579 126.559  0.00  0.00    +0.000 C 
ATOM      8  C   UNL     1     101.499 108.286 125.744  0.00  0.00    +0.000 C 
ATOM      9  H   UNL     1     100.754 110.602 122.119  0.00  0.00    +0.000 HD
ENDROOT
BRANCH   1  10
ATOM     10  C   UNL     1      98.909 110.164 123.107  0.00  0.00    +0.000 C 
BRANCH  10  12
ATOM     11  C   UNL     1      99.424 111.734 125.030  0.00  0.00    +0.000 C 
ATOM     12  C   UNL     1      98.487 111.435 123.866  0.00  0.00    +0.000 C 
ENDBRANCH  10  12
BRANCH  10  13
ATOM     13  C   UNL     1      98.147 109.898 121.796  0.00  0.00    +0.000 C 
BRANCH  13  14
ATOM     14  C   UNL     1      96.861 109.158 122.003  0.00  0.00    +0.000 A 
ATOM     15  C   UNL     1      95.619 109.660 122.343  0.00  0.00    +0.000 A 
ATOM     16  N   UNL     1      94.727 108.641 122.441  0.00  0.00    +0.000 N 
ATOM     17  C   UNL     1      95.345 107.468 122.126  0.00  0.00    +0.000 A 
ATOM     18  C   UNL     1      94.808 106.189 122.076  0.00  0.00    +0.000 A 
ATOM     19  C   UNL     1      95.677 105.156 121.734  0.00  0.00    +0.000 A 
ATOM     20  C   UNL     1      97.016 105.403 121.431  0.00  0.00    +0.000 A 
ATOM     21  C   UNL     1      97.534 106.700 121.470  0.00  0.00    +0.000 A 
ATOM     22  C   UNL     1      96.680 107.754 121.841  0.00  0.00    +0.000 A 
ATOM     23  H   UNL     1      93.755 108.758 122.689  0.00  0.00    +0.000 HD
ENDBRANCH  13  14
ENDBRANCH  10  13
ENDBRANCH   1  10
BRANCH   7  24
ATOM     24  C   UNL     1     100.094 108.062 128.034  0.00  0.00    +0.000 C 
BRANCH  24  25
ATOM     25  N   UNL     1     101.121 108.000 129.147  0.00  0.00    +0.000 NA
ATOM     26  C   UNL     1     100.566 107.466 130.416  0.00  0.00    +0.000 C 
ATOM     27  C   UNL     1      99.588 108.396 131.152  0.00  0.00    +0.000 C 
ATOM     28  O   UNL     1     100.202 109.674 131.398  0.00  0.00    +0.000 OA
ATOM     29  C   UNL     1     100.930 110.177 130.275  0.00  0.00    +0.000 C 
ATOM     30  C   UNL     1     101.838 109.272 129.472  0.00  0.00    +0.000 C 
ENDBRANCH  24  25
ENDBRANCH   7  24
TORSDOF 6
ENDMDL
MODEL 10
REMARK VINA RESULT:    -8.903      2.608      4.059
REMARK INTER + INTRA:         -13.256
REMARK INTER:                 -12.191
REMARK INTRA:                  -1.065
REMARK UNBOUND:                -1.230
REMARK  Name = 
REMARK  7 active torsions:
REMARK  status: ('A' for Active; 'I' for Inactive)
REMARK    1  A    between atoms: C_1  and  C_2
REMARK    2  A    between atoms: C_2  and  C_3
REMARK    3  A    between atoms: C_3  and  C_4
REMARK    4  A    between atoms: C_3  and  N_14
REMARK    5  A    between atoms: C_4  and  C_5
REMARK    6  A    between atoms: C_20  and  C_21
REMARK    7  A    between atoms: C_21  and  N_22
REMARK                            x       y       z     vdW  Elec       q    Type
REMARK                         _______ _______ _______ _____ _____    ______ ____
ROOT
ATOM      1  N   UNL     1     102.067 107.325 125.459  0.00  0.00    +0.000 N 
ATOM      2  C   UNL     1     101.391 106.915 126.561  0.00  0.00    +0.000 C 
ATOM      3  O   UNL     1     101.363 105.715 126.879  0.00  0.00    +0.000 OA
ATOM      4  N   UNL     1     100.796 107.846 127.317  0.00  0.00    +0.000 N 
ATOM      5  C   UNL     1      99.985 108.876 126.776  0.00  0.00    +0.000 C 
ATOM      6  C   UNL     1     100.453 109.974 127.627  0.00  0.00    +0.000 C 
ATOM      7  C   UNL     1     100.569 109.426 129.071  0.00  0.00    +0.000 C 
ATOM      8  C   UNL     1     100.942 107.965 128.773  0.00  0.00    +0.000 C 
ATOM      9  H   UNL     1     102.394 106.542 124.909  0.00  0.00    +0.000 HD
ENDROOT
BRANCH   1  10
ATOM     10  C   UNL     1     102.402 108.679 124.958  0.00  0.00    +0.000 C 
BRANCH  10  12
ATOM     11  C   UNL     1     104.038 109.412 126.751  0.00  0.00    +0.000 C 
ATOM     12  C   UNL     1     103.836 109.148 125.264  0.00  0.00    +0.000 C 
ENDBRANCH  10  12
BRANCH  10  13
ATOM     13  C   UNL     1     101.971 108.799 123.486  0.00  0.00    +0.000 C 
BRANCH  13  14
ATOM     14  C   UNL     1     100.503 109.053 123.320  0.00  0.00    +0.000 A 
ATOM     15  C   UNL     1      99.822 110.254 123.373  0.00  0.00    +0.000 A 
ATOM     16  N   UNL     1      98.496 110.034 123.183  0.00  0.00    +0.000 N 
ATOM     17  C   UNL     1      98.286 108.707 122.959  0.00  0.00    +0.000 A 
ATOM     18  C   UNL     1      97.093 108.047 122.698  0.00  0.00    +0.000 A 
ATOM     19  C   UNL     1      97.163 106.668 122.518  0.00  0.00    +0.000 A 
ATOM     20  C   UNL     1      98.381 105.990 122.572  0.00  0.00    +0.000 A 
ATOM     21  C   UNL     1      99.574 106.674 122.820  0.00  0.00    +0.000 A 
ATOM     22  C   UNL     1      99.521 108.062 123.032  0.00  0.00    +0.000 A 
ATOM     23  H   UNL     1      97.793 110.759 123.188  0.00  0.00    +0.000 HD
ENDBRANCH  13  14
ENDBRANCH  10  13
ENDBRANCH   1  10
BRANCH   7  24
ATOM     24  C   UNL     1     101.419 110.249 130.123  0.00  0.00    +0.000 C 
BRANCH  24  25
ATOM     25  N   UNL     1     101.057 110.318 131.592  0.00  0.00    +0.000 NA
ATOM     26  C   UNL     1     101.786 109.319 132.415  0.00  0.00    +0.000 C 
ATOM     27  C   UNL     1     101.359 107.857 132.212  0.00  0.00    +0.000 C 
ATOM     28  O   UNL     1      99.942 107.715 132.431  0.00  0.00    +0.000 OA
ATOM     29  C   UNL     1      99.171 108.756 131.828  0.00  0.00    +0.000 C 
ATOM     30  C   UNL     1      99.604 110.202 131.932  0.00  0.00    +0.000 C 
ENDBRANCH  24  25
ENDBRANCH   7  24
TORSDOF 6
ENDMDL
