MODEL 1
REMARK VINA RESULT:    -9.368      0.000      0.000
REMARK INTER + INTRA:         -14.610
REMARK INTER:                 -13.749
REMARK INTRA:                  -0.861
REMARK UNBOUND:                -0.861
REMARK  Name = 
REMARK  10 active torsions:
REMARK  status: ('A' for Active; 'I' for Inactive)
REMARK    1  A    between atoms: C_1  and  C_2
REMARK    2  A    between atoms: C_2  and  C_3
REMARK    3  A    between atoms: C_3  and  C_4
REMARK    4  A    between atoms: C_3  and  C_5
REMARK    5  A    between atoms: C_5  and  N_6
REMARK    6  A    between atoms: C_10  and  C_11
REMARK    7  A    between atoms: C_11  and  N_12
REMARK    8  A    between atoms: C_13  and  C_15
REMARK    9  A    between atoms: C_20  and  O_21
REMARK   10  A    between atoms: O_21  and  C_22
REMARK                            x       y       z     vdW  Elec       q    Type
REMARK                         _______ _______ _______ _____ _____    ______ ____
ROOT
ATOM      1  N   UNL     1     -41.184-158.748 306.776  0.00  0.00    +0.000 N 
ATOM      2  C   UNL     1     -41.744-157.761 306.020  0.00  0.00    +0.000 C 
ATOM      3  O   UNL     1     -41.414-157.578 304.832  0.00  0.00    +0.000 OA
ATOM      4  H   UNL     1     -40.351-159.088 306.313  0.00  0.00    +0.000 HD
ENDROOT
BRANCH   2   5
ATOM      5  C   UNL     1     -42.719-156.875 306.620  0.00  0.00    +0.000 A 
ATOM      6  C   UNL     1     -42.239-155.895 307.519  0.00  0.00    +0.000 A 
ATOM      7  C   UNL     1     -43.107-154.952 308.055  0.00  0.00    +0.000 A 
ATOM      8  C   UNL     1     -44.426-154.932 307.616  0.00  0.00    +0.000 A 
ATOM      9  C   UNL     1     -44.893-155.915 306.715  0.00  0.00    +0.000 A 
ATOM     10  C   UNL     1     -44.060-156.952 306.248  0.00  0.00    +0.000 A 
BRANCH  10  11
ATOM     11  O   UNL     1     -44.603-157.835 305.338  0.00  0.00    +0.000 OA
BRANCH  11  12
ATOM     12  C   UNL     1     -46.036-158.033 305.073  0.00  0.00    +0.000 C 
ATOM     13  F   UNL     1     -46.408-158.570 303.872  0.00  0.00    +0.000 F 
ATOM     14  F   UNL     1     -46.598-158.807 306.009  0.00  0.00    +0.000 F 
ENDBRANCH  11  12
ENDBRANCH  10  11
ENDBRANCH   2   5
BRANCH   1  15
ATOM     15  C   UNL     1     -41.243-158.973 308.251  0.00  0.00    +0.000 C 
BRANCH  15  20
ATOM     16  N   UNL     1     -40.809-162.292 310.020  0.00  0.00    +0.000 NA
ATOM     17  C   UNL     1     -40.108-162.947 308.884  0.00  0.00    +0.000 C 
ATOM     18  C   UNL     1     -39.384-162.008 307.920  0.00  0.00    +0.000 C 
ATOM     19  O   UNL     1     -40.278-160.972 307.525  0.00  0.00    +0.000 OA
ATOM     20  C   UNL     1     -41.023-160.390 308.610  0.00  0.00    +0.000 C 
ATOM     21  C   UNL     1     -41.821-161.326 309.450  0.00  0.00    +0.000 C 
BRANCH  16  22
ATOM     22  C   UNL     1     -39.808-161.711 311.019  0.00  0.00    +0.000 C 
BRANCH  22  23
ATOM     23  C   UNL     1     -40.230-160.936 312.377  0.00  0.00    +0.000 C 
ATOM     24  C   UNL     1     -41.384-161.504 313.147  0.00  0.00    +0.000 C 
BRANCH  23  26
ATOM     25  C   UNL     1     -41.966-158.787 312.169  0.00  0.00    +0.000 C 
ATOM     26  C   UNL     1     -40.626-159.457 312.231  0.00  0.00    +0.000 C 
ENDBRANCH  23  26
ENDBRANCH  22  23
ENDBRANCH  16  22
ENDBRANCH  15  20
ENDBRANCH   1  15
TORSDOF 8
ENDMDL
MODEL 2
REMARK VINA RESULT:    -9.320      3.239      7.539
REMARK INTER + INTRA:         -14.540
REMARK INTER:                 -13.672
REMARK INTRA:                  -0.868
REMARK UNBOUND:                -0.861
REMARK  Name = 
REMARK  10 active torsions:
REMARK  status: ('A' for Active; 'I' for Inactive)
REMARK    1  A    between atoms: C_1  and  C_2
REMARK    2  A    between atoms: C_2  and  C_3
REMARK    3  A    between atoms: C_3  and  C_4
REMARK    4  A    between atoms: C_3  and  C_5
REMARK    5  A    between atoms: C_5  and  N_6
REMARK    6  A    between atoms: C_10  and  C_11
REMARK    7  A    between atoms: C_11  and  N_12
REMARK    8  A    between atoms: C_13  and  C_15
REMARK    9  A    between atoms: C_20  and  O_21
REMARK   10  A    between atoms: O_21  and  C_22
REMARK                            x       y       z     vdW  Elec       q    Type
REMARK                         _______ _______ _______ _____ _____    ______ ____
ROOT
ATOM      1  N   UNL     1     -42.042-158.127 310.764  0.00  0.00    +0.000 N 
ATOM      2  C   UNL     1     -41.181-158.846 311.539  0.00  0.00    +0.000 C 
ATOM      3  O   UNL     1     -40.413-158.294 312.351  0.00  0.00    +0.000 OA
ATOM      4  H   UNL     1     -41.772-157.153 310.784  0.00  0.00    +0.000 HD
ENDROOT
BRANCH   2   5
ATOM      5  C   UNL     1     -41.126-160.285 311.392  0.00  0.00    +0.000 A 
ATOM      6  C   UNL     1     -40.483-160.796 310.241  0.00  0.00    +0.000 A 
ATOM      7  C   UNL     1     -40.310-162.165 310.085  0.00  0.00    +0.000 A 
ATOM      8  C   UNL     1     -40.692-163.009 311.122  0.00  0.00    +0.000 A 
ATOM      9  C   UNL     1     -41.332-162.487 312.268  0.00  0.00    +0.000 A 
ATOM     10  C   UNL     1     -41.623-161.113 312.398  0.00  0.00    +0.000 A 
BRANCH  10  11
ATOM     11  O   UNL     1     -42.210-160.701 313.575  0.00  0.00    +0.000 OA
BRANCH  11  12
ATOM     12  C   UNL     1     -43.601-160.249 313.737  0.00  0.00    +0.000 C 
ATOM     13  F   UNL     1     -43.840-158.908 313.849  0.00  0.00    +0.000 F 
ATOM     14  F   UNL     1     -44.368-160.675 312.726  0.00  0.00    +0.000 F 
ENDBRANCH  11  12
ENDBRANCH  10  11
ENDBRANCH   2   5
BRANCH   1  15
ATOM     15  C   UNL     1     -42.844-158.553 309.578  0.00  0.00    +0.000 C 
BRANCH  15  20
ATOM     16  N   UNL     1     -42.890-156.419 306.451  0.00  0.00    +0.000 NA
ATOM     17  C   UNL     1     -41.547-156.855 305.984  0.00  0.00    +0.000 C 
ATOM     18  C   UNL     1     -41.080-158.220 306.487  0.00  0.00    +0.000 C 
ATOM     19  O   UNL     1     -41.243-158.271 307.901  0.00  0.00    +0.000 OA
ATOM     20  C   UNL     1     -42.510-157.773 308.368  0.00  0.00    +0.000 C 
ATOM     21  C   UNL     1     -42.871-156.386 307.961  0.00  0.00    +0.000 C 
BRANCH  16  22
ATOM     22  C   UNL     1     -43.993-157.260 305.806  0.00  0.00    +0.000 C 
BRANCH  22  23
ATOM     23  C   UNL     1     -45.384-156.651 305.245  0.00  0.00    +0.000 C 
ATOM     24  C   UNL     1     -45.899-155.414 305.918  0.00  0.00    +0.000 C 
BRANCH  23  26
ATOM     25  C   UNL     1     -47.019-158.721 304.399  0.00  0.00    +0.000 C 
ATOM     26  C   UNL     1     -46.608-157.581 305.283  0.00  0.00    +0.000 C 
ENDBRANCH  23  26
ENDBRANCH  22  23
ENDBRANCH  16  22
ENDBRANCH  15  20
ENDBRANCH   1  15
TORSDOF 8
ENDMDL
MODEL 3
REMARK VINA RESULT:    -9.085      2.851      7.506
REMARK INTER + INTRA:         -14.194
REMARK INTER:                 -13.423
REMARK INTRA:                  -0.772
REMARK UNBOUND:                -0.861
REMARK  Name = 
REMARK  10 active torsions:
REMARK  status: ('A' for Active; 'I' for Inactive)
REMARK    1  A    between atoms: C_1  and  C_2
REMARK    2  A    between atoms: C_2  and  C_3
REMARK    3  A    between atoms: C_3  and  C_4
REMARK    4  A    between atoms: C_3  and  C_5
REMARK    5  A    between atoms: C_5  and  N_6
REMARK    6  A    between atoms: C_10  and  C_11
REMARK    7  A    between atoms: C_11  and  N_12
REMARK    8  A    between atoms: C_13  and  C_15
REMARK    9  A    between atoms: C_20  and  O_21
REMARK   10  A    between atoms: O_21  and  C_22
REMARK                            x       y       z     vdW  Elec       q    Type
REMARK                         _______ _______ _______ _____ _____    ______ ____
ROOT
ATOM      1  N   UNL     1     -40.277-160.129 307.913  0.00  0.00    +0.000 N 
ATOM      2  C   UNL     1     -39.793-161.360 308.246  0.00  0.00    +0.000 C 
ATOM      3  O   UNL     1     -38.830-161.871 307.641  0.00  0.00    +0.000 OA
ATOM      4  H   UNL     1     -39.913-159.864 307.007  0.00  0.00    +0.000 HD
ENDROOT
BRANCH   2   5
ATOM      5  C   UNL     1     -40.434-162.112 309.303  0.00  0.00    +0.000 A 
ATOM      6  C   UNL     1     -40.871-163.421 308.995  0.00  0.00    +0.000 A 
ATOM      7  C   UNL     1     -41.407-164.232 309.988  0.00  0.00    +0.000 A 
ATOM      8  C   UNL     1     -41.413-163.768 311.299  0.00  0.00    +0.000 A 
ATOM      9  C   UNL     1     -40.971-162.459 311.594  0.00  0.00    +0.000 A 
ATOM     10  C   UNL     1     -40.533-161.576 310.587  0.00  0.00    +0.000 A 
BRANCH  10  11
ATOM     11  O   UNL     1     -40.082-160.336 310.987  0.00  0.00    +0.000 OA
BRANCH  11  12
ATOM     12  C   UNL     1     -40.734-159.453 311.966  0.00  0.00    +0.000 C 
ATOM     13  F   UNL     1     -40.188-158.221 312.197  0.00  0.00    +0.000 F 
ATOM     14  F   UNL     1     -42.013-159.231 311.640  0.00  0.00    +0.000 F 
ENDBRANCH  11  12
ENDBRANCH  10  11
ENDBRANCH   2   5
BRANCH   1  15
ATOM     15  C   UNL     1     -41.545-159.457 308.324  0.00  0.00    +0.000 C 
BRANCH  15  20
ATOM     16  N   UNL     1     -43.046-156.446 306.588  0.00  0.00    +0.000 NA
ATOM     17  C   UNL     1     -41.858-156.192 305.731  0.00  0.00    +0.000 C 
ATOM     18  C   UNL     1     -40.966-157.403 305.457  0.00  0.00    +0.000 C 
ATOM     19  O   UNL     1     -40.659-158.039 306.694  0.00  0.00    +0.000 OA
ATOM     20  C   UNL     1     -41.791-158.213 307.565  0.00  0.00    +0.000 C 
ATOM     21  C   UNL     1     -42.560-156.985 307.913  0.00  0.00    +0.000 C 
BRANCH  16  22
ATOM     22  C   UNL     1     -44.082-157.297 305.851  0.00  0.00    +0.000 C 
BRANCH  22  23
ATOM     23  C   UNL     1     -45.457-156.711 305.229  0.00  0.00    +0.000 C 
ATOM     24  C   UNL     1     -45.994-155.453 305.843  0.00  0.00    +0.000 C 
BRANCH  23  26
ATOM     25  C   UNL     1     -47.061-158.817 304.411  0.00  0.00    +0.000 C 
ATOM     26  C   UNL     1     -46.680-157.642 305.263  0.00  0.00    +0.000 C 
ENDBRANCH  23  26
ENDBRANCH  22  23
ENDBRANCH  16  22
ENDBRANCH  15  20
ENDBRANCH   1  15
TORSDOF 8
ENDMDL
MODEL 4
REMARK VINA RESULT:    -8.665      2.320      4.009
REMARK INTER + INTRA:         -13.578
REMARK INTER:                 -12.421
REMARK INTRA:                  -1.157
REMARK UNBOUND:                -0.861
REMARK  Name = 
REMARK  10 active torsions:
REMARK  status: ('A' for Active; 'I' for Inactive)
REMARK    1  A    between atoms: C_1  and  C_2
REMARK    2  A    between atoms: C_2  and  C_3
REMARK    3  A    between atoms: C_3  and  C_4
REMARK    4  A    between atoms: C_3  and  C_5
REMARK    5  A    between atoms: C_5  and  N_6
REMARK    6  A    between atoms: C_10  and  C_11
REMARK    7  A    between atoms: C_11  and  N_12
REMARK    8  A    between atoms: C_13  and  C_15
REMARK    9  A    between atoms: C_20  and  O_21
REMARK   10  A    between atoms: O_21  and  C_22
REMARK                            x       y       z     vdW  Elec       q    Type
REMARK                         _______ _______ _______ _____ _____    ______ ____
ROOT
ATOM      1  N   UNL     1     -43.250-156.854 307.746  0.00  0.00    +0.000 N 
ATOM      2  C   UNL     1     -44.542-156.562 307.420  0.00  0.00    +0.000 C 
ATOM      3  O   UNL     1     -45.167-155.641 307.981  0.00  0.00    +0.000 OA
ATOM      4  H   UNL     1     -43.019-156.402 308.620  0.00  0.00    +0.000 HD
ENDROOT
BRANCH   2   5
ATOM      5  C   UNL     1     -45.221-157.364 306.424  0.00  0.00    +0.000 A 
ATOM      6  C   UNL     1     -46.178-158.297 306.885  0.00  0.00    +0.000 A 
ATOM      7  C   UNL     1     -46.935-159.029 305.979  0.00  0.00    +0.000 A 
ATOM      8  C   UNL     1     -46.801-158.755 304.622  0.00  0.00    +0.000 A 
ATOM      9  C   UNL     1     -45.843-157.818 304.174  0.00  0.00    +0.000 A 
ATOM     10  C   UNL     1     -44.983-157.148 305.067  0.00  0.00    +0.000 A 
BRANCH  10  11
ATOM     11  O   UNL     1     -44.113-156.222 304.531  0.00  0.00    +0.000 OA
BRANCH  11  12
ATOM     12  C   UNL     1     -44.346-154.773 304.429  0.00  0.00    +0.000 C 
ATOM     13  F   UNL     1     -45.478-154.255 304.993  0.00  0.00    +0.000 F 
ATOM     14  F   UNL     1     -43.327-154.082 304.954  0.00  0.00    +0.000 F 
ENDBRANCH  11  12
ENDBRANCH  10  11
ENDBRANCH   2   5
BRANCH   1  15
ATOM     15  C   UNL     1     -42.421-158.043 307.391  0.00  0.00    +0.000 C 
BRANCH  15  20
ATOM     16  N   UNL     1     -40.829-160.400 309.891  0.00  0.00    +0.000 NA
ATOM     17  C   UNL     1     -41.205-159.591 311.081  0.00  0.00    +0.000 C 
ATOM     18  C   UNL     1     -42.422-158.683 310.908  0.00  0.00    +0.000 C 
ATOM     19  O   UNL     1     -42.262-157.918 309.718  0.00  0.00    +0.000 OA
ATOM     20  C   UNL     1     -41.817-158.679 308.581  0.00  0.00    +0.000 C 
ATOM     21  C   UNL     1     -40.553-159.450 308.749  0.00  0.00    +0.000 C 
BRANCH  16  22
ATOM     22  C   UNL     1     -41.861-161.496 309.625  0.00  0.00    +0.000 C 
BRANCH  22  23
ATOM     23  C   UNL     1     -41.595-163.072 309.880  0.00  0.00    +0.000 C 
ATOM     24  C   UNL     1     -41.272-163.484 311.285  0.00  0.00    +0.000 C 
BRANCH  23  26
ATOM     25  C   UNL     1     -39.334-163.115 308.278  0.00  0.00    +0.000 C 
ATOM     26  C   UNL     1     -40.452-163.716 309.077  0.00  0.00    +0.000 C 
ENDBRANCH  23  26
ENDBRANCH  22  23
ENDBRANCH  16  22
ENDBRANCH  15  20
ENDBRANCH   1  15
TORSDOF 8
ENDMDL
MODEL 5
REMARK VINA RESULT:    -8.555      1.686      3.042
REMARK INTER + INTRA:         -13.416
REMARK INTER:                 -12.524
REMARK INTRA:                  -0.892
REMARK UNBOUND:                -0.861
REMARK  Name = 
REMARK  10 active torsions:
REMARK  status: ('A' for Active; 'I' for Inactive)
REMARK    1  A    between atoms: C_1  and  C_2
REMARK    2  A    between atoms: C_2  and  C_3
REMARK    3  A    between atoms: C_3  and  C_4
REMARK    4  A    between atoms: C_3  and  C_5
REMARK    5  A    between atoms: C_5  and  N_6
REMARK    6  A    between atoms: C_10  and  C_11
REMARK    7  A    between atoms: C_11  and  N_12
REMARK    8  A    between atoms: C_13  and  C_15
REMARK    9  A    between atoms: C_20  and  O_21
REMARK   10  A    between atoms: O_21  and  C_22
REMARK                            x       y       z     vdW  Elec       q    Type
REMARK                         _______ _______ _______ _____ _____    ______ ____
ROOT
ATOM      1  N   UNL     1     -42.069-158.256 306.945  0.00  0.00    +0.000 N 
ATOM      2  C   UNL     1     -42.140-157.611 305.745  0.00  0.00    +0.000 C 
ATOM      3  O   UNL     1     -41.420-157.940 304.782  0.00  0.00    +0.000 OA
ATOM      4  H   UNL     1     -41.224-158.811 306.974  0.00  0.00    +0.000 HD
ENDROOT
BRANCH   2   5
ATOM      5  C   UNL     1     -43.045-156.492 305.594  0.00  0.00    +0.000 A 
ATOM      6  C   UNL     1     -42.474-155.232 305.301  0.00  0.00    +0.000 A 
ATOM      7  C   UNL     1     -43.289-154.136 305.047  0.00  0.00    +0.000 A 
ATOM      8  C   UNL     1     -44.666-154.326 304.992  0.00  0.00    +0.000 A 
ATOM      9  C   UNL     1     -45.224-155.591 305.284  0.00  0.00    +0.000 A 
ATOM     10  C   UNL     1     -44.423-156.689 305.658  0.00  0.00    +0.000 A 
BRANCH  10  11
ATOM     11  O   UNL     1     -45.064-157.890 305.880  0.00  0.00    +0.000 OA
BRANCH  11  12
ATOM     12  C   UNL     1     -46.409-158.254 305.408  0.00  0.00    +0.000 C 
ATOM     13  F   UNL     1     -46.588-158.496 304.075  0.00  0.00    +0.000 F 
ATOM     14  F   UNL     1     -46.865-159.341 306.042  0.00  0.00    +0.000 F 
ENDBRANCH  11  12
ENDBRANCH  10  11
ENDBRANCH   2   5
BRANCH   1  15
ATOM     15  C   UNL     1     -42.638-157.872 308.271  0.00  0.00    +0.000 C 
BRANCH  15  20
ATOM     16  N   UNL     1     -40.931-160.380 310.537  0.00  0.00    +0.000 NA
ATOM     17  C   UNL     1     -41.254-159.652 311.793  0.00  0.00    +0.000 C 
ATOM     18  C   UNL     1     -42.480-158.741 311.735  0.00  0.00    +0.000 C 
ATOM     19  O   UNL     1     -42.375-157.898 310.592  0.00  0.00    +0.000 OA
ATOM     20  C   UNL     1     -41.980-158.581 309.389  0.00  0.00    +0.000 C 
ATOM     21  C   UNL     1     -40.709-159.356 309.448  0.00  0.00    +0.000 C 
BRANCH  16  22
ATOM     22  C   UNL     1     -41.972-161.461 310.246  0.00  0.00    +0.000 C 
BRANCH  22  23
ATOM     23  C   UNL     1     -41.647-162.846 309.475  0.00  0.00    +0.000 C 
ATOM     24  C   UNL     1     -41.543-164.081 310.320  0.00  0.00    +0.000 C 
BRANCH  23  26
ATOM     25  C   UNL     1     -39.330-163.981 308.465  0.00  0.00    +0.000 C 
ATOM     26  C   UNL     1     -40.344-162.893 308.661  0.00  0.00    +0.000 C 
ENDBRANCH  23  26
ENDBRANCH  22  23
ENDBRANCH  16  22
ENDBRANCH  15  20
ENDBRANCH   1  15
TORSDOF 8
ENDMDL
MODEL 6
REMARK VINA RESULT:    -8.442      2.601      4.035
REMARK INTER + INTRA:         -13.251
REMARK INTER:                 -12.144
REMARK INTRA:                  -1.108
REMARK UNBOUND:                -0.861
REMARK  Name = 
REMARK  10 active torsions:
REMARK  status: ('A' for Active; 'I' for Inactive)
REMARK    1  A    between atoms: C_1  and  C_2
REMARK    2  A    between atoms: C_2  and  C_3
REMARK    3  A    between atoms: C_3  and  C_4
REMARK    4  A    between atoms: C_3  and  C_5
REMARK    5  A    between atoms: C_5  and  N_6
REMARK    6  A    between atoms: C_10  and  C_11
REMARK    7  A    between atoms: C_11  and  N_12
REMARK    8  A    between atoms: C_13  and  C_15
REMARK    9  A    between atoms: C_20  and  O_21
REMARK   10  A    between atoms: O_21  and  C_22
REMARK                            x       y       z     vdW  Elec       q    Type
REMARK                         _______ _______ _______ _____ _____    ______ ____
ROOT
ATOM      1  N   UNL     1     -42.810-157.073 308.831  0.00  0.00    +0.000 N 
ATOM      2  C   UNL     1     -43.582-156.259 308.055  0.00  0.00    +0.000 C 
ATOM      3  O   UNL     1     -43.791-155.068 308.361  0.00  0.00    +0.000 OA
ATOM      4  H   UNL     1     -42.679-156.641 309.736  0.00  0.00    +0.000 HD
ENDROOT
BRANCH   2   5
ATOM      5  C   UNL     1     -44.209-156.797 306.867  0.00  0.00    +0.000 A 
ATOM      6  C   UNL     1     -45.489-157.380 307.016  0.00  0.00    +0.000 A 
ATOM      7  C   UNL     1     -46.188-157.828 305.902  0.00  0.00    +0.000 A 
ATOM      8  C   UNL     1     -45.648-157.603 304.640  0.00  0.00    +0.000 A 
ATOM      9  C   UNL     1     -44.369-157.018 304.504  0.00  0.00    +0.000 A 
ATOM     10  C   UNL     1     -43.591-156.661 305.624  0.00  0.00    +0.000 A 
BRANCH  10  11
ATOM     11  O   UNL     1     -42.376-156.057 305.381  0.00  0.00    +0.000 OA
BRANCH  11  12
ATOM     12  C   UNL     1     -41.080-156.740 305.254  0.00  0.00    +0.000 C 
ATOM     13  F   UNL     1     -40.213-156.696 306.311  0.00  0.00    +0.000 F 
ATOM     14  F   UNL     1     -41.243-158.038 304.970  0.00  0.00    +0.000 F 
ENDBRANCH  11  12
ENDBRANCH  10  11
ENDBRANCH   2   5
BRANCH   1  15
ATOM     15  C   UNL     1     -42.644-158.556 308.790  0.00  0.00    +0.000 C 
BRANCH  15  20
ATOM     16  N   UNL     1     -40.624-160.614 311.243  0.00  0.00    +0.000 NA
ATOM     17  C   UNL     1     -40.964-159.773 312.420  0.00  0.00    +0.000 C 
ATOM     18  C   UNL     1     -42.271-158.986 312.319  0.00  0.00    +0.000 C 
ATOM     19  O   UNL     1     -42.289-158.280 311.082  0.00  0.00    +0.000 OA
ATOM     20  C   UNL     1     -41.880-159.065 309.948  0.00  0.00    +0.000 C 
ATOM     21  C   UNL     1     -40.540-159.713 310.033  0.00  0.00    +0.000 C 
BRANCH  16  22
ATOM     22  C   UNL     1     -41.571-161.810 311.131  0.00  0.00    +0.000 C 
BRANCH  22  23
ATOM     23  C   UNL     1     -41.311-163.083 310.166  0.00  0.00    +0.000 C 
ATOM     24  C   UNL     1     -41.609-164.436 310.738  0.00  0.00    +0.000 C 
BRANCH  23  26
ATOM     25  C   UNL     1     -39.246-162.849 308.333  0.00  0.00    +0.000 C 
ATOM     26  C   UNL     1     -39.881-163.260 309.629  0.00  0.00    +0.000 C 
ENDBRANCH  23  26
ENDBRANCH  22  23
ENDBRANCH  16  22
ENDBRANCH  15  20
ENDBRANCH   1  15
TORSDOF 8
ENDMDL
MODEL 7
REMARK VINA RESULT:    -8.163      3.542      7.639
REMARK INTER + INTRA:         -12.842
REMARK INTER:                 -12.447
REMARK INTRA:                  -0.396
REMARK UNBOUND:                -0.861
REMARK  Name = 
REMARK  10 active torsions:
REMARK  status: ('A' for Active; 'I' for Inactive)
REMARK    1  A    between atoms: C_1  and  C_2
REMARK    2  A    between atoms: C_2  and  C_3
REMARK    3  A    between atoms: C_3  and  C_4
REMARK    4  A    between atoms: C_3  and  C_5
REMARK    5  A    between atoms: C_5  and  N_6
REMARK    6  A    between atoms: C_10  and  C_11
REMARK    7  A    between atoms: C_11  and  N_12
REMARK    8  A    between atoms: C_13  and  C_15
REMARK    9  A    between atoms: C_20  and  O_21
REMARK   10  A    between atoms: O_21  and  C_22
REMARK                            x       y       z     vdW  Elec       q    Type
REMARK                         _______ _______ _______ _____ _____    ______ ____
ROOT
ATOM      1  N   UNL     1     -40.366-160.303 308.011  0.00  0.00    +0.000 N 
ATOM      2  C   UNL     1     -39.798-161.448 308.485  0.00  0.00    +0.000 C 
ATOM      3  O   UNL     1     -38.978-162.101 307.809  0.00  0.00    +0.000 OA
ATOM      4  H   UNL     1     -40.211-160.244 307.013  0.00  0.00    +0.000 HD
ENDROOT
BRANCH   2   5
ATOM      5  C   UNL     1     -40.182-161.944 309.790  0.00  0.00    +0.000 A 
ATOM      6  C   UNL     1     -40.109-161.040 310.874  0.00  0.00    +0.000 A 
ATOM      7  C   UNL     1     -40.553-161.421 312.134  0.00  0.00    +0.000 A 
ATOM      8  C   UNL     1     -41.157-162.665 312.281  0.00  0.00    +0.000 A 
ATOM      9  C   UNL     1     -41.227-163.558 311.189  0.00  0.00    +0.000 A 
ATOM     10  C   UNL     1     -40.678-163.239 309.931  0.00  0.00    +0.000 A 
BRANCH  10  11
ATOM     11  O   UNL     1     -40.838-164.164 308.921  0.00  0.00    +0.000 OA
BRANCH  11  12
ATOM     12  C   UNL     1     -39.982-165.335 308.676  0.00  0.00    +0.000 C 
ATOM     13  F   UNL     1     -38.646-165.234 308.944  0.00  0.00    +0.000 F 
ATOM     14  F   UNL     1     -40.414-166.400 309.362  0.00  0.00    +0.000 F 
ENDBRANCH  11  12
ENDBRANCH  10  11
ENDBRANCH   2   5
BRANCH   1  15
ATOM     15  C   UNL     1     -41.530-159.526 308.533  0.00  0.00    +0.000 C 
BRANCH  15  20
ATOM     16  N   UNL     1     -43.019-156.497 306.817  0.00  0.00    +0.000 NA
ATOM     17  C   UNL     1     -41.889-156.326 305.865  0.00  0.00    +0.000 C 
ATOM     18  C   UNL     1     -41.078-157.587 305.565  0.00  0.00    +0.000 C 
ATOM     19  O   UNL     1     -40.707-158.201 306.795  0.00  0.00    +0.000 OA
ATOM     20  C   UNL     1     -41.775-158.294 307.754  0.00  0.00    +0.000 C 
ATOM     21  C   UNL     1     -42.457-157.021 308.118  0.00  0.00    +0.000 C 
BRANCH  16  22
ATOM     22  C   UNL     1     -44.146-157.317 306.188  0.00  0.00    +0.000 C 
BRANCH  22  23
ATOM     23  C   UNL     1     -45.681-156.814 306.083  0.00  0.00    +0.000 C 
ATOM     24  C   UNL     1     -46.640-157.717 305.367  0.00  0.00    +0.000 C 
BRANCH  23  26
ATOM     25  C   UNL     1     -44.964-154.401 304.924  0.00  0.00    +0.000 C 
ATOM     26  C   UNL     1     -45.917-155.464 305.385  0.00  0.00    +0.000 C 
ENDBRANCH  23  26
ENDBRANCH  22  23
ENDBRANCH  16  22
ENDBRANCH  15  20
ENDBRANCH   1  15
TORSDOF 8
ENDMDL
MODEL 8
REMARK VINA RESULT:    -8.154      3.226      5.602
REMARK INTER + INTRA:         -12.828
REMARK INTER:                 -12.129
REMARK INTRA:                  -0.699
REMARK UNBOUND:                -0.861
REMARK  Name = 
REMARK  10 active torsions:
REMARK  status: ('A' for Active; 'I' for Inactive)
REMARK    1  A    between atoms: C_1  and  C_2
REMARK    2  A    between atoms: C_2  and  C_3
REMARK    3  A    between atoms: C_3  and  C_4
REMARK    4  A    between atoms: C_3  and  C_5
REMARK    5  A    between atoms: C_5  and  N_6
REMARK    6  A    between atoms: C_10  and  C_11
REMARK    7  A    between atoms: C_11  and  N_12
REMARK    8  A    between atoms: C_13  and  C_15
REMARK    9  A    between atoms: C_20  and  O_21
REMARK   10  A    between atoms: O_21  and  C_22
REMARK                            x       y       z     vdW  Elec       q    Type
REMARK                         _______ _______ _______ _____ _____    ______ ____
ROOT
ATOM      1  N   UNL     1     -40.997-161.011 307.878  0.00  0.00    +0.000 N 
ATOM      2  C   UNL     1     -40.775-159.721 308.261  0.00  0.00    +0.000 C 
ATOM      3  O   UNL     1     -40.155-158.919 307.534  0.00  0.00    +0.000 OA
ATOM      4  H   UNL     1     -40.393-161.234 307.098  0.00  0.00    +0.000 HD
ENDROOT
BRANCH   2   5
ATOM      5  C   UNL     1     -41.236-159.276 309.559  0.00  0.00    +0.000 A 
ATOM      6  C   UNL     1     -40.488-159.684 310.687  0.00  0.00    +0.000 A 
ATOM      7  C   UNL     1     -40.818-159.215 311.952  0.00  0.00    +0.000 A 
ATOM      8  C   UNL     1     -41.829-158.267 312.071  0.00  0.00    +0.000 A 
ATOM      9  C   UNL     1     -42.568-157.866 310.935  0.00  0.00    +0.000 A 
ATOM     10  C   UNL     1     -42.328-158.415 309.659  0.00  0.00    +0.000 A 
BRANCH  10  11
ATOM     11  O   UNL     1     -43.076-157.923 308.610  0.00  0.00    +0.000 OA
BRANCH  11  12
ATOM     12  C   UNL     1     -43.032-156.550 308.085  0.00  0.00    +0.000 C 
ATOM     13  F   UNL     1     -42.865-155.520 308.968  0.00  0.00    +0.000 F 
ATOM     14  F   UNL     1     -42.061-156.412 307.174  0.00  0.00    +0.000 F 
ENDBRANCH  11  12
ENDBRANCH  10  11
ENDBRANCH   2   5
BRANCH   1  15
ATOM     15  C   UNL     1     -41.478-162.176 308.679  0.00  0.00    +0.000 C 
BRANCH  15  20
ATOM     16  N   UNL     1     -38.480-164.454 308.281  0.00  0.00    +0.000 NA
ATOM     17  C   UNL     1     -39.061-165.564 309.081  0.00  0.00    +0.000 C 
ATOM     18  C   UNL     1     -40.587-165.606 309.149  0.00  0.00    +0.000 C 
ATOM     19  O   UNL     1     -41.068-164.317 309.518  0.00  0.00    +0.000 OA
ATOM     20  C   UNL     1     -40.449-163.230 308.806  0.00  0.00    +0.000 C 
ATOM     21  C   UNL     1     -38.963-163.150 308.871  0.00  0.00    +0.000 C 
BRANCH  16  22
ATOM     22  C   UNL     1     -38.742-164.659 306.788  0.00  0.00    +0.000 C 
BRANCH  22  23
ATOM     23  C   UNL     1     -38.180-165.914 305.934  0.00  0.00    +0.000 C 
ATOM     24  C   UNL     1     -39.042-167.140 305.889  0.00  0.00    +0.000 C 
BRANCH  23  26
ATOM     25  C   UNL     1     -35.709-165.900 307.187  0.00  0.00    +0.000 C 
ATOM     26  C   UNL     1     -36.818-166.484 306.363  0.00  0.00    +0.000 C 
ENDBRANCH  23  26
ENDBRANCH  22  23
ENDBRANCH  16  22
ENDBRANCH  15  20
ENDBRANCH   1  15
TORSDOF 8
ENDMDL
MODEL 9
REMARK VINA RESULT:    -8.127      2.896      6.940
REMARK INTER + INTRA:         -12.789
REMARK INTER:                 -11.901
REMARK INTRA:                  -0.888
REMARK UNBOUND:                -0.861
REMARK  Name = 
REMARK  10 active torsions:
REMARK  status: ('A' for Active; 'I' for Inactive)
REMARK    1  A    between atoms: C_1  and  C_2
REMARK    2  A    between atoms: C_2  and  C_3
REMARK    3  A    between atoms: C_3  and  C_4
REMARK    4  A    between atoms: C_3  and  C_5
REMARK    5  A    between atoms: C_5  and  N_6
REMARK    6  A    between atoms: C_10  and  C_11
REMARK    7  A    between atoms: C_11  and  N_12
REMARK    8  A    between atoms: C_13  and  C_15
REMARK    9  A    between atoms: C_20  and  O_21
REMARK   10  A    between atoms: O_21  and  C_22
REMARK                            x       y       z     vdW  Elec       q    Type
REMARK                         _______ _______ _______ _____ _____    ______ ____
ROOT
ATOM      1  N   UNL     1     -41.212-162.801 310.813  0.00  0.00    +0.000 N 
ATOM      2  C   UNL     1     -40.991-163.843 309.960  0.00  0.00    +0.000 C 
ATOM      3  O   UNL     1     -41.705-164.865 309.977  0.00  0.00    +0.000 OA
ATOM      4  H   UNL     1     -41.828-163.105 311.555  0.00  0.00    +0.000 HD
ENDROOT
BRANCH   2   5
ATOM      5  C   UNL     1     -39.879-163.780 309.036  0.00  0.00    +0.000 A 
ATOM      6  C   UNL     1     -38.990-164.880 309.015  0.00  0.00    +0.000 A 
ATOM      7  C   UNL     1     -37.958-164.928 308.087  0.00  0.00    +0.000 A 
ATOM      8  C   UNL     1     -37.880-163.928 307.123  0.00  0.00    +0.000 A 
ATOM      9  C   UNL     1     -38.775-162.836 307.153  0.00  0.00    +0.000 A 
ATOM     10  C   UNL     1     -39.757-162.706 308.156  0.00  0.00    +0.000 A 
BRANCH  10  11
ATOM     11  O   UNL     1     -40.608-161.625 308.068  0.00  0.00    +0.000 OA
BRANCH  11  12
ATOM     12  C   UNL     1     -40.259-160.286 307.569  0.00  0.00    +0.000 C 
ATOM     13  F   UNL     1     -41.201-159.585 306.869  0.00  0.00    +0.000 F 
ATOM     14  F   UNL     1     -39.874-159.483 308.569  0.00  0.00    +0.000 F 
ENDBRANCH  11  12
ENDBRANCH  10  11
ENDBRANCH   2   5
BRANCH   1  15
ATOM     15  C   UNL     1     -40.347-161.626 311.129  0.00  0.00    +0.000 C 
BRANCH  15  20
ATOM     16  N   UNL     1     -42.784-158.729 311.226  0.00  0.00    +0.000 NA
ATOM     17  C   UNL     1     -42.024-157.962 312.247  0.00  0.00    +0.000 C 
ATOM     18  C   UNL     1     -40.527-158.262 312.325  0.00  0.00    +0.000 C 
ATOM     19  O   UNL     1     -40.343-159.672 312.408  0.00  0.00    +0.000 OA
ATOM     20  C   UNL     1     -41.139-160.427 311.478  0.00  0.00    +0.000 C 
ATOM     21  C   UNL     1     -42.611-160.200 311.522  0.00  0.00    +0.000 C 
BRANCH  16  22
ATOM     22  C   UNL     1     -42.414-158.276 309.813  0.00  0.00    +0.000 C 
BRANCH  22  23
ATOM     23  C   UNL     1     -43.325-157.286 308.912  0.00  0.00    +0.000 C 
ATOM     24  C   UNL     1     -43.580-157.705 307.495  0.00  0.00    +0.000 C 
BRANCH  23  26
ATOM     25  C   UNL     1     -42.501-155.037 307.520  0.00  0.00    +0.000 C 
ATOM     26  C   UNL     1     -42.816-155.844 308.744  0.00  0.00    +0.000 C 
ENDBRANCH  23  26
ENDBRANCH  22  23
ENDBRANCH  16  22
ENDBRANCH  15  20
ENDBRANCH   1  15
TORSDOF 8
ENDMDL
MODEL 10
REMARK VINA RESULT:    -8.116      4.316      7.241
REMARK INTER + INTRA:         -12.773
REMARK INTER:                 -12.051
REMARK INTRA:                  -0.722
REMARK UNBOUND:                -0.861
REMARK  Name = 
REMARK  10 active torsions:
REMARK  status: ('A' for Active; 'I' for Inactive)
REMARK    1  A    between atoms: C_1  and  C_2
REMARK    2  A    between atoms: C_2  and  C_3
REMARK    3  A    between atoms: C_3  and  C_4
REMARK    4  A    between atoms: C_3  and  C_5
REMARK    5  A    between atoms: C_5  and  N_6
REMARK    6  A    between atoms: C_10  and  C_11
REMARK    7  A    between atoms: C_11  and  N_12
REMARK    8  A    between atoms: C_13  and  C_15
REMARK    9  A    between atoms: C_20  and  O_21
REMARK   10  A    between atoms: O_21  and  C_22
REMARK                            x       y       z     vdW  Elec       q    Type
REMARK                         _______ _______ _______ _____ _____    ______ ____
ROOT
ATOM      1  N   UNL     1     -41.134-162.934 311.521  0.00  0.00    +0.000 N 
ATOM      2  C   UNL     1     -41.161-163.579 310.321  0.00  0.00    +0.000 C 
ATOM      3  O   UNL     1     -41.703-164.695 310.188  0.00  0.00    +0.000 OA
ATOM      4  H   UNL     1     -41.376-163.587 312.254  0.00  0.00    +0.000 HD
ENDROOT
BRANCH   2   5
ATOM      5  C   UNL     1     -40.512-162.976 309.176  0.00  0.00    +0.000 A 
ATOM      6  C   UNL     1     -41.001-161.723 308.739  0.00  0.00    +0.000 A 
ATOM      7  C   UNL     1     -40.364-161.044 307.708  0.00  0.00    +0.000 A 
ATOM      8  C   UNL     1     -39.187-161.572 307.187  0.00  0.00    +0.000 A 
ATOM      9  C   UNL     1     -38.708-162.824 307.634  0.00  0.00    +0.000 A 
ATOM     10  C   UNL     1     -39.401-163.586 308.596  0.00  0.00    +0.000 A 
BRANCH  10  11
ATOM     11  O   UNL     1     -38.825-164.774 308.994  0.00  0.00    +0.000 OA
BRANCH  11  12
ATOM     12  C   UNL     1     -38.943-166.068 308.305  0.00  0.00    +0.000 C 
ATOM     13  F   UNL     1     -40.194-166.544 308.024  0.00  0.00    +0.000 F 
ATOM     14  F   UNL     1     -38.287-166.056 307.138  0.00  0.00    +0.000 F 
ENDBRANCH  11  12
ENDBRANCH  10  11
ENDBRANCH   2   5
BRANCH   1  15
ATOM     15  C   UNL     1     -40.340-161.745 311.950  0.00  0.00    +0.000 C 
BRANCH  15  20
ATOM     16  N   UNL     1     -42.648-158.876 311.067  0.00  0.00    +0.000 NA
ATOM     17  C   UNL     1     -42.054-157.932 312.050  0.00  0.00    +0.000 C 
ATOM     18  C   UNL     1     -40.607-158.216 312.453  0.00  0.00    +0.000 C 
ATOM     19  O   UNL     1     -40.492-159.585 312.827  0.00  0.00    +0.000 OA
ATOM     20  C   UNL     1     -41.137-160.500 311.923  0.00  0.00    +0.000 C 
ATOM     21  C   UNL     1     -42.584-160.266 311.656  0.00  0.00    +0.000 C 
BRANCH  16  22
ATOM     22  C   UNL     1     -42.017-158.697 309.686  0.00  0.00    +0.000 C 
BRANCH  22  23
ATOM     23  C   UNL     1     -42.732-157.923 308.457  0.00  0.00    +0.000 C 
ATOM     24  C   UNL     1     -41.941-157.794 307.189  0.00  0.00    +0.000 C 
BRANCH  23  26
ATOM     25  C   UNL     1     -42.844-155.190 308.017  0.00  0.00    +0.000 C 
ATOM     26  C   UNL     1     -43.174-156.474 308.719  0.00  0.00    +0.000 C 
ENDBRANCH  23  26
ENDBRANCH  22  23
ENDBRANCH  16  22
ENDBRANCH  15  20
ENDBRANCH   1  15
TORSDOF 8
ENDMDL
