MODEL 1
REMARK VINA RESULT:    -8.730      0.000      0.000
REMARK INTER + INTRA:         -11.870
REMARK INTER:                 -10.771
REMARK INTRA:                  -1.099
REMARK UNBOUND:                -1.099
REMARK  Name = 
REMARK  7 active torsions:
REMARK  status: ('A' for Active; 'I' for Inactive)
REMARK    1  A    between atoms: C_1  and  C_2
REMARK    2  A    between atoms: C_2  and  C_3
REMARK    3  A    between atoms: C_3  and  C_4
REMARK    4  A    between atoms: C_5  and  C_6
REMARK    5  A    between atoms: C_18  and  C_19
REMARK    6  A    between atoms: C_20  and  C_21
REMARK    7  A    between atoms: C_21  and  C_22
REMARK                            x       y       z     vdW  Elec       q    Type
REMARK                         _______ _______ _______ _____ _____    ______ ____
ROOT
ATOM      1  C   UNL     1     -41.786-158.329 308.662  0.00  0.00    +0.000 A 
ATOM      2  C   UNL     1     -41.324-159.576 308.182  0.00  0.00    +0.000 A 
ATOM      3  N   UNL     1     -41.027-159.298 306.838  0.00  0.00    +0.000 N 
ATOM      4  C   UNL     1     -41.352-157.992 306.465  0.00  0.00    +0.000 A 
ATOM      5  C   UNL     1     -41.061-157.539 305.070  0.00  0.00    +0.000 C 
ATOM      6  C   UNL     1     -41.917-157.367 307.564  0.00  0.00    +0.000 A 
ATOM      7  H   UNL     1     -40.682-159.998 306.194  0.00  0.00    +0.000 HD
ENDROOT
BRANCH   2   8
ATOM      8  C   UNL     1     -41.239-161.021 308.719  0.00  0.00    +0.000 C 
ATOM      9  O   UNL     1     -41.324-161.943 307.941  0.00  0.00    +0.000 OA
ATOM     10  N   UNL     1     -40.961-161.323 310.108  0.00  0.00    +0.000 N 
ATOM     11  C   UNL     1     -39.602-161.692 310.458  0.00  0.00    +0.000 C 
ATOM     12  C   UNL     1     -39.515-161.716 312.007  0.00  0.00    +0.000 C 
ATOM     13  C   UNL     1     -40.950-161.788 312.571  0.00  0.00    +0.000 C 
ATOM     14  C   UNL     1     -41.386-160.938 313.820  0.00  0.00    +0.000 C 
ATOM     15  C   UNL     1     -42.933-161.048 313.973  0.00  0.00    +0.000 C 
ATOM     16  C   UNL     1     -43.680-160.488 312.774  0.00  0.00    +0.000 C 
ATOM     17  C   UNL     1     -43.407-161.439 311.506  0.00  0.00    +0.000 C 
ATOM     18  C   UNL     1     -41.827-161.474 311.349  0.00  0.00    +0.000 C 
ENDBRANCH   2   8
BRANCH   6  19
ATOM     19  C   UNL     1     -42.593-156.037 307.703  0.00  0.00    +0.000 C 
ATOM     20  C   UNL     1     -44.060-155.861 307.978  0.00  0.00    +0.000 C 
ATOM     21  O   UNL     1     -41.969-154.991 307.577  0.00  0.00    +0.000 OA
ENDBRANCH   6  19
BRANCH   1  22
ATOM     22  C   UNL     1     -42.423-158.065 310.000  0.00  0.00    +0.000 C 
BRANCH  22  24
ATOM     23  C   UNL     1     -41.897-157.545 312.332  0.00  0.00    +0.000 C 
ATOM     24  C   UNL     1     -41.373-158.219 311.109  0.00  0.00    +0.000 C 
ENDBRANCH  22  24
ENDBRANCH   1  22
TORSDOF 4
ENDMDL
MODEL 2
REMARK VINA RESULT:    -8.072      2.381      6.359
REMARK INTER + INTRA:         -11.058
REMARK INTER:                 -10.305
REMARK INTRA:                  -0.754
REMARK UNBOUND:                -1.099
REMARK  Name = 
REMARK  7 active torsions:
REMARK  status: ('A' for Active; 'I' for Inactive)
REMARK    1  A    between atoms: C_1  and  C_2
REMARK    2  A    between atoms: C_2  and  C_3
REMARK    3  A    between atoms: C_3  and  C_4
REMARK    4  A    between atoms: C_5  and  C_6
REMARK    5  A    between atoms: C_18  and  C_19
REMARK    6  A    between atoms: C_20  and  C_21
REMARK    7  A    between atoms: C_21  and  C_22
REMARK                            x       y       z     vdW  Elec       q    Type
REMARK                         _______ _______ _______ _____ _____    ______ ____
ROOT
ATOM      1  C   UNL     1     -42.270-160.664 309.957  0.00  0.00    +0.000 A 
ATOM      2  C   UNL     1     -42.025-159.537 309.139  0.00  0.00    +0.000 A 
ATOM      3  N   UNL     1     -40.990-159.983 308.302  0.00  0.00    +0.000 N 
ATOM      4  C   UNL     1     -40.550-161.270 308.614  0.00  0.00    +0.000 A 
ATOM      5  C   UNL     1     -39.473-161.893 307.785  0.00  0.00    +0.000 C 
ATOM      6  C   UNL     1     -41.272-161.709 309.712  0.00  0.00    +0.000 A 
ATOM      7  H   UNL     1     -40.563-159.398 307.595  0.00  0.00    +0.000 HD
ENDROOT
BRANCH   2   8
ATOM      8  C   UNL     1     -42.492-158.066 309.091  0.00  0.00    +0.000 C 
ATOM      9  O   UNL     1     -42.449-157.402 310.102  0.00  0.00    +0.000 OA
ATOM     10  N   UNL     1     -42.890-157.413 307.862  0.00  0.00    +0.000 N 
ATOM     11  C   UNL     1     -41.918-156.556 307.209  0.00  0.00    +0.000 C 
ATOM     12  C   UNL     1     -42.490-156.188 305.814  0.00  0.00    +0.000 C 
ATOM     13  C   UNL     1     -44.006-156.477 305.821  0.00  0.00    +0.000 C 
ATOM     14  C   UNL     1     -44.721-157.148 304.592  0.00  0.00    +0.000 C 
ATOM     15  C   UNL     1     -46.174-157.522 305.014  0.00  0.00    +0.000 C 
ATOM     16  C   UNL     1     -46.212-158.529 306.152  0.00  0.00    +0.000 C 
ATOM     17  C   UNL     1     -45.655-157.821 307.484  0.00  0.00    +0.000 C 
ATOM     18  C   UNL     1     -44.203-157.303 307.101  0.00  0.00    +0.000 C 
ENDBRANCH   2   8
BRANCH   6  19
ATOM     19  C   UNL     1     -41.118-162.927 310.571  0.00  0.00    +0.000 C 
ATOM     20  C   UNL     1     -41.558-164.305 310.165  0.00  0.00    +0.000 C 
ATOM     21  O   UNL     1     -40.626-162.857 311.691  0.00  0.00    +0.000 OA
ENDBRANCH   6  19
BRANCH   1  22
ATOM     22  C   UNL     1     -43.156-160.714 311.172  0.00  0.00    +0.000 C 
BRANCH  22  24
ATOM     23  C   UNL     1     -43.584-159.381 313.179  0.00  0.00    +0.000 C 
ATOM     24  C   UNL     1     -42.498-159.936 312.321  0.00  0.00    +0.000 C 
ENDBRANCH  22  24
ENDBRANCH   1  22
TORSDOF 4
ENDMDL
MODEL 3
REMARK VINA RESULT:    -7.798      2.744      4.300
REMARK INTER + INTRA:         -10.720
REMARK INTER:                  -9.903
REMARK INTRA:                  -0.817
REMARK UNBOUND:                -1.099
REMARK  Name = 
REMARK  7 active torsions:
REMARK  status: ('A' for Active; 'I' for Inactive)
REMARK    1  A    between atoms: C_1  and  C_2
REMARK    2  A    between atoms: C_2  and  C_3
REMARK    3  A    between atoms: C_3  and  C_4
REMARK    4  A    between atoms: C_5  and  C_6
REMARK    5  A    between atoms: C_18  and  C_19
REMARK    6  A    between atoms: C_20  and  C_21
REMARK    7  A    between atoms: C_21  and  C_22
REMARK                            x       y       z     vdW  Elec       q    Type
REMARK                         _______ _______ _______ _____ _____    ______ ____
ROOT
ATOM      1  C   UNL     1     -41.693-159.164 309.681  0.00  0.00    +0.000 A 
ATOM      2  C   UNL     1     -40.747-160.179 309.410  0.00  0.00    +0.000 A 
ATOM      3  N   UNL     1     -40.464-159.981 308.049  0.00  0.00    +0.000 N 
ATOM      4  C   UNL     1     -41.232-158.968 307.472  0.00  0.00    +0.000 A 
ATOM      5  C   UNL     1     -41.017-158.620 306.035  0.00  0.00    +0.000 C 
ATOM      6  C   UNL     1     -42.088-158.480 308.446  0.00  0.00    +0.000 A 
ATOM      7  H   UNL     1     -39.822-160.566 307.530  0.00  0.00    +0.000 HD
ENDROOT
BRANCH   2   8
ATOM      8  C   UNL     1     -40.160-161.392 310.163  0.00  0.00    +0.000 C 
ATOM      9  O   UNL     1     -39.799-161.253 311.310  0.00  0.00    +0.000 OA
ATOM     10  N   UNL     1     -40.112-162.720 309.589  0.00  0.00    +0.000 N 
ATOM     11  C   UNL     1     -41.141-163.663 309.985  0.00  0.00    +0.000 C 
ATOM     12  C   UNL     1     -41.016-164.900 309.057  0.00  0.00    +0.000 C 
ATOM     13  C   UNL     1     -39.621-164.870 308.395  0.00  0.00    +0.000 C 
ATOM     14  C   UNL     1     -39.423-165.227 306.877  0.00  0.00    +0.000 C 
ATOM     15  C   UNL     1     -37.962-164.861 306.474  0.00  0.00    +0.000 C 
ATOM     16  C   UNL     1     -37.670-163.377 306.621  0.00  0.00    +0.000 C 
ATOM     17  C   UNL     1     -37.683-163.002 308.184  0.00  0.00    +0.000 C 
ATOM     18  C   UNL     1     -39.113-163.453 308.707  0.00  0.00    +0.000 C 
ENDBRANCH   2   8
BRANCH   6  19
ATOM     19  C   UNL     1     -43.232-157.517 308.361  0.00  0.00    +0.000 C 
ATOM     20  C   UNL     1     -43.115-156.043 308.628  0.00  0.00    +0.000 C 
ATOM     21  O   UNL     1     -44.362-157.895 308.077  0.00  0.00    +0.000 OA
ENDBRANCH   6  19
BRANCH   1  22
ATOM     22  C   UNL     1     -42.496-159.002 310.943  0.00  0.00    +0.000 C 
BRANCH  22  24
ATOM     23  C   UNL     1     -40.689-158.225 312.398  0.00  0.00    +0.000 C 
ATOM     24  C   UNL     1     -41.962-157.805 311.744  0.00  0.00    +0.000 C 
ENDBRANCH  22  24
ENDBRANCH   1  22
TORSDOF 4
ENDMDL
MODEL 4
REMARK VINA RESULT:    -7.773      1.801      6.239
REMARK INTER + INTRA:         -10.689
REMARK INTER:                  -9.998
REMARK INTRA:                  -0.691
REMARK UNBOUND:                -1.099
REMARK  Name = 
REMARK  7 active torsions:
REMARK  status: ('A' for Active; 'I' for Inactive)
REMARK    1  A    between atoms: C_1  and  C_2
REMARK    2  A    between atoms: C_2  and  C_3
REMARK    3  A    between atoms: C_3  and  C_4
REMARK    4  A    between atoms: C_5  and  C_6
REMARK    5  A    between atoms: C_18  and  C_19
REMARK    6  A    between atoms: C_20  and  C_21
REMARK    7  A    between atoms: C_21  and  C_22
REMARK                            x       y       z     vdW  Elec       q    Type
REMARK                         _______ _______ _______ _____ _____    ______ ____
ROOT
ATOM      1  C   UNL     1     -41.822-159.530 309.398  0.00  0.00    +0.000 A 
ATOM      2  C   UNL     1     -41.173-159.339 308.157  0.00  0.00    +0.000 A 
ATOM      3  N   UNL     1     -40.767-160.639 307.818  0.00  0.00    +0.000 N 
ATOM      4  C   UNL     1     -41.062-161.580 308.807  0.00  0.00    +0.000 A 
ATOM      5  C   UNL     1     -40.718-163.016 308.573  0.00  0.00    +0.000 C 
ATOM      6  C   UNL     1     -41.652-160.909 309.865  0.00  0.00    +0.000 A 
ATOM      7  H   UNL     1     -40.248-160.852 306.976  0.00  0.00    +0.000 HD
ENDROOT
BRANCH   2   8
ATOM      8  C   UNL     1     -40.741-158.134 307.293  0.00  0.00    +0.000 C 
ATOM      9  O   UNL     1     -39.573-157.818 307.266  0.00  0.00    +0.000 OA
ATOM     10  N   UNL     1     -41.661-157.421 306.432  0.00  0.00    +0.000 N 
ATOM     11  C   UNL     1     -41.648-157.746 305.017  0.00  0.00    +0.000 C 
ATOM     12  C   UNL     1     -42.872-157.044 304.372  0.00  0.00    +0.000 C 
ATOM     13  C   UNL     1     -43.362-155.942 305.335  0.00  0.00    +0.000 C 
ATOM     14  C   UNL     1     -44.894-155.699 305.596  0.00  0.00    +0.000 C 
ATOM     15  C   UNL     1     -45.037-154.703 306.787  0.00  0.00    +0.000 C 
ATOM     16  C   UNL     1     -44.448-155.248 308.078  0.00  0.00    +0.000 C 
ATOM     17  C   UNL     1     -42.851-155.341 307.917  0.00  0.00    +0.000 C 
ATOM     18  C   UNL     1     -42.616-156.256 306.641  0.00  0.00    +0.000 C 
ENDBRANCH   2   8
BRANCH   6  19
ATOM     19  C   UNL     1     -42.023-161.370 311.241  0.00  0.00    +0.000 C 
ATOM     20  C   UNL     1     -41.067-162.030 312.195  0.00  0.00    +0.000 C 
ATOM     21  O   UNL     1     -43.164-161.247 311.668  0.00  0.00    +0.000 OA
ENDBRANCH   6  19
BRANCH   1  22
ATOM     22  C   UNL     1     -42.304-158.453 310.332  0.00  0.00    +0.000 C 
BRANCH  22  24
ATOM     23  C   UNL     1     -42.000-157.879 312.691  0.00  0.00    +0.000 C 
ATOM     24  C   UNL     1     -41.266-158.232 311.442  0.00  0.00    +0.000 C 
ENDBRANCH  22  24
ENDBRANCH   1  22
TORSDOF 4
ENDMDL
