MODEL 1
REMARK VINA RESULT:     0.000      0.000      0.000
REMARK INTER + INTRA:          -1.675
REMARK INTER:                   0.000
REMARK INTRA:                  -1.675
REMARK UNBOUND:                -1.675
REMARK  Name = 
REMARK  7 active torsions:
REMARK  status: ('A' for Active; 'I' for Inactive)
REMARK    1  A    between atoms: C_1  and  C_2
REMARK    2  A    between atoms: C_2  and  O_3
REMARK    3  A    between atoms: O_3  and  C_4
REMARK    4  A    between atoms: C_7  and  C_8
REMARK    5  A    between atoms: C_8  and  C_9
REMARK    6  A    between atoms: C_9  and  N_10
REMARK    7  A    between atoms: C_11  and  C_13
REMARK                            x       y       z     vdW  Elec       q    Type
REMARK                         _______ _______ _______ _____ _____    ______ ____
ROOT
ATOM      1  N   UNL     1     -46.714-302.145  63.745  0.00  0.00    +0.000 N 
ATOM      2  C   UNL     1     -46.812-301.375  62.649  0.00  0.00    +0.000 C 
ATOM      3  O   UNL     1     -45.880-301.518  61.858  0.00  0.00    +0.000 OA
ATOM      4  H   UNL     1     -45.851-302.675  63.726  0.00  0.00    +0.000 HD
ENDROOT
BRANCH   2   5
ATOM      5  C   UNL     1     -48.001-300.449  62.489  0.00  0.00    +0.000 C 
ATOM      6  C   UNL     1     -48.518-300.439  61.040  0.00  0.00    +0.000 C 
ATOM      7  C   UNL     1     -47.544-299.710  60.115  0.00  0.00    +0.000 C 
ATOM      8  C   UNL     1     -47.220-298.299  60.630  0.00  0.00    +0.000 C 
ATOM      9  N   UNL     1     -46.786-298.368  62.011  0.00  0.00    +0.000 N 
ATOM     10  C   UNL     1     -45.561-297.888  62.404  0.00  0.00    +0.000 A 
ATOM     11  N   UNL     1     -44.715-298.678  63.085  0.00  0.00    +0.000 NA
ATOM     12  C   UNL     1     -43.500-298.212  63.428  0.00  0.00    +0.000 A 
ATOM     13  C   UNL     1     -43.126-296.917  63.222  0.00  0.00    +0.000 A 
ATOM     14  C   UNL     1     -44.070-296.151  62.582  0.00  0.00    +0.000 A 
ATOM     15  N   UNL     1     -45.255-296.615  62.128  0.00  0.00    +0.000 NA
ATOM     16  C   UNL     1     -47.660-299.034  62.954  0.00  0.00    +0.000 C 
ENDBRANCH   2   5
BRANCH   1  17
ATOM     17  C   UNL     1     -47.656-302.380  64.805  0.00  0.00    +0.000 C 
BRANCH  17  18
ATOM     18  C   UNL     1     -47.123-301.927  66.162  0.00  0.00    +0.000 C 
BRANCH  18  22
ATOM     19  C   UNL     1     -47.180-297.642  66.640  0.00  0.00    +0.000 A 
ATOM     20  C   UNL     1     -45.964-298.282  66.437  0.00  0.00    +0.000 A 
ATOM     21  C   UNL     1     -45.936-299.669  66.266  0.00  0.00    +0.000 A 
ATOM     22  C   UNL     1     -47.114-300.432  66.321  0.00  0.00    +0.000 A 
ATOM     23  C   UNL     1     -48.322-299.785  66.519  0.00  0.00    +0.000 A 
ATOM     24  C   UNL     1     -48.345-298.405  66.626  0.00  0.00    +0.000 A 
BRANCH  19  25
ATOM     25  O   UNL     1     -47.179-296.278  66.684  0.00  0.00    +0.000 OA
BRANCH  25  27
ATOM     26  C   UNL     1     -47.768-295.437  64.400  0.00  0.00    +0.000 C 
ATOM     27  C   UNL     1     -46.738-295.581  65.509  0.00  0.00    +0.000 C 
ENDBRANCH  25  27
ENDBRANCH  19  25
ENDBRANCH  18  22
ENDBRANCH  17  18
ENDBRANCH   1  17
TORSDOF 6
ENDMDL
MODEL 2
REMARK VINA RESULT:     0.000      7.031      9.865
REMARK INTER + INTRA:          -1.675
REMARK INTER:                   0.000
REMARK INTRA:                  -1.675
REMARK UNBOUND:                -1.675
REMARK  Name = 
REMARK  7 active torsions:
REMARK  status: ('A' for Active; 'I' for Inactive)
REMARK    1  A    between atoms: C_1  and  C_2
REMARK    2  A    between atoms: C_2  and  O_3
REMARK    3  A    between atoms: O_3  and  C_4
REMARK    4  A    between atoms: C_7  and  C_8
REMARK    5  A    between atoms: C_8  and  C_9
REMARK    6  A    between atoms: C_9  and  N_10
REMARK    7  A    between atoms: C_11  and  C_13
REMARK                            x       y       z     vdW  Elec       q    Type
REMARK                         _______ _______ _______ _____ _____    ______ ____
ROOT
ATOM      1  N   UNL     1     -42.171-296.140  59.504  0.00  0.00    +0.000 N 
ATOM      2  C   UNL     1     -42.088-297.440  59.176  0.00  0.00    +0.000 C 
ATOM      3  O   UNL     1     -40.984-297.938  59.395  0.00  0.00    +0.000 OA
ATOM      4  H   UNL     1     -41.274-295.804  59.837  0.00  0.00    +0.000 HD
ENDROOT
BRANCH   2   5
ATOM      5  C   UNL     1     -43.299-298.144  58.598  0.00  0.00    +0.000 C 
ATOM      6  C   UNL     1     -43.453-299.564  59.168  0.00  0.00    +0.000 C 
ATOM      7  C   UNL     1     -42.373-300.495  58.619  0.00  0.00    +0.000 C 
ATOM      8  C   UNL     1     -42.340-300.483  57.083  0.00  0.00    +0.000 C 
ATOM      9  N   UNL     1     -42.244-299.119  56.606  0.00  0.00    +0.000 N 
ATOM     10  C   UNL     1     -41.209-298.710  55.800  0.00  0.00    +0.000 A 
ATOM     11  N   UNL     1     -40.468-297.644  56.143  0.00  0.00    +0.000 NA
ATOM     12  C   UNL     1     -39.430-297.278  55.369  0.00  0.00    +0.000 A 
ATOM     13  C   UNL     1     -39.164-297.871  54.171  0.00  0.00    +0.000 A 
ATOM     14  C   UNL     1     -40.006-298.909  53.854  0.00  0.00    +0.000 A 
ATOM     15  N   UNL     1     -40.989-299.372  54.658  0.00  0.00    +0.000 NA
ATOM     16  C   UNL     1     -43.238-298.175  57.072  0.00  0.00    +0.000 C 
ENDBRANCH   2   5
BRANCH   1  17
ATOM     17  C   UNL     1     -43.306-295.261  59.546  0.00  0.00    +0.000 C 
BRANCH  17  18
ATOM     18  C   UNL     1     -43.166-294.091  58.575  0.00  0.00    +0.000 C 
BRANCH  18  22
ATOM     19  C   UNL     1     -43.811-295.234  54.467  0.00  0.00    +0.000 A 
ATOM     20  C   UNL     1     -42.518-294.961  54.897  0.00  0.00    +0.000 A 
ATOM     21  C   UNL     1     -42.297-294.604  56.230  0.00  0.00    +0.000 A 
ATOM     22  C   UNL     1     -43.362-294.491  57.140  0.00  0.00    +0.000 A 
ATOM     23  C   UNL     1     -44.646-294.770  56.703  0.00  0.00    +0.000 A 
ATOM     24  C   UNL     1     -44.847-295.182  55.397  0.00  0.00    +0.000 A 
BRANCH  19  25
ATOM     25  O   UNL     1     -43.972-295.693  53.193  0.00  0.00    +0.000 OA
BRANCH  25  27
ATOM     26  C   UNL     1     -44.087-298.193  53.287  0.00  0.00    +0.000 C 
ATOM     27  C   UNL     1     -43.343-296.939  52.857  0.00  0.00    +0.000 C 
ENDBRANCH  25  27
ENDBRANCH  19  25
ENDBRANCH  18  22
ENDBRANCH  17  18
ENDBRANCH   1  17
TORSDOF 6
ENDMDL
MODEL 3
REMARK VINA RESULT:     0.000      3.687      7.723
REMARK INTER + INTRA:          -1.675
REMARK INTER:                   0.000
REMARK INTRA:                  -1.675
REMARK UNBOUND:                -1.675
REMARK  Name = 
REMARK  7 active torsions:
REMARK  status: ('A' for Active; 'I' for Inactive)
REMARK    1  A    between atoms: C_1  and  C_2
REMARK    2  A    between atoms: C_2  and  O_3
REMARK    3  A    between atoms: O_3  and  C_4
REMARK    4  A    between atoms: C_7  and  C_8
REMARK    5  A    between atoms: C_8  and  C_9
REMARK    6  A    between atoms: C_9  and  N_10
REMARK    7  A    between atoms: C_11  and  C_13
REMARK                            x       y       z     vdW  Elec       q    Type
REMARK                         _______ _______ _______ _____ _____    ______ ____
ROOT
ATOM      1  N   UNL     1     -46.037-301.242  59.056  0.00  0.00    +0.000 N 
ATOM      2  C   UNL     1     -46.253-301.003  60.360  0.00  0.00    +0.000 C 
ATOM      3  O   UNL     1     -45.242-301.096  61.056  0.00  0.00    +0.000 OA
ATOM      4  H   UNL     1     -45.069-301.498  58.902  0.00  0.00    +0.000 HD
ENDROOT
BRANCH   2   5
ATOM      5  C   UNL     1     -47.650-300.656  60.836  0.00  0.00    +0.000 C 
ATOM      6  C   UNL     1     -47.624-299.545  61.900  0.00  0.00    +0.000 C 
ATOM      7  C   UNL     1     -47.063-300.066  63.222  0.00  0.00    +0.000 C 
ATOM      8  C   UNL     1     -47.812-301.318  63.703  0.00  0.00    +0.000 C 
ATOM      9  N   UNL     1     -47.845-302.306  62.645  0.00  0.00    +0.000 N 
ATOM     10  C   UNL     1     -47.328-303.567  62.821  0.00  0.00    +0.000 A 
ATOM     11  N   UNL     1     -46.421-304.050  61.959  0.00  0.00    +0.000 NA
ATOM     12  C   UNL     1     -45.889-305.269  62.165  0.00  0.00    +0.000 A 
ATOM     13  C   UNL     1     -46.323-306.100  63.155  0.00  0.00    +0.000 A 
ATOM     14  C   UNL     1     -47.301-305.563  63.955  0.00  0.00    +0.000 A 
ATOM     15  N   UNL     1     -47.780-304.304  63.842  0.00  0.00    +0.000 NA
ATOM     16  C   UNL     1     -48.374-301.895  61.361  0.00  0.00    +0.000 C 
ENDBRANCH   2   5
BRANCH   1  17
ATOM     17  C   UNL     1     -46.907-301.084  57.925  0.00  0.00    +0.000 C 
BRANCH  17  18
ATOM     18  C   UNL     1     -47.171-302.406  57.209  0.00  0.00    +0.000 C 
BRANCH  18  22
ATOM     19  C   UNL     1     -49.911-304.955  59.353  0.00  0.00    +0.000 A 
ATOM     20  C   UNL     1     -48.559-305.278  59.337  0.00  0.00    +0.000 A 
ATOM     21  C   UNL     1     -47.661-304.451  58.658  0.00  0.00    +0.000 A 
ATOM     22  C   UNL     1     -48.103-303.309  57.968  0.00  0.00    +0.000 A 
ATOM     23  C   UNL     1     -49.451-302.993  57.992  0.00  0.00    +0.000 A 
ATOM     24  C   UNL     1     -50.323-303.785  58.720  0.00  0.00    +0.000 A 
BRANCH  19  25
ATOM     25  O   UNL     1     -50.738-305.719  60.124  0.00  0.00    +0.000 OA
BRANCH  25  27
ATOM     26  C   UNL     1     -51.020-304.561  62.326  0.00  0.00    +0.000 C 
ATOM     27  C   UNL     1     -50.484-305.744  61.537  0.00  0.00    +0.000 C 
ENDBRANCH  25  27
ENDBRANCH  19  25
ENDBRANCH  18  22
ENDBRANCH  17  18
ENDBRANCH   1  17
TORSDOF 6
ENDMDL
MODEL 4
REMARK VINA RESULT:     0.000      2.122      5.407
REMARK INTER + INTRA:          -1.674
REMARK INTER:                   0.000
REMARK INTRA:                  -1.674
REMARK UNBOUND:                -1.675
REMARK  Name = 
REMARK  7 active torsions:
REMARK  status: ('A' for Active; 'I' for Inactive)
REMARK    1  A    between atoms: C_1  and  C_2
REMARK    2  A    between atoms: C_2  and  O_3
REMARK    3  A    between atoms: O_3  and  C_4
REMARK    4  A    between atoms: C_7  and  C_8
REMARK    5  A    between atoms: C_8  and  C_9
REMARK    6  A    between atoms: C_9  and  N_10
REMARK    7  A    between atoms: C_11  and  C_13
REMARK                            x       y       z     vdW  Elec       q    Type
REMARK                         _______ _______ _______ _____ _____    ______ ____
ROOT
ATOM      1  N   UNL     1     -48.177-297.906  66.281  0.00  0.00    +0.000 N 
ATOM      2  C   UNL     1     -47.239-298.568  66.978  0.00  0.00    +0.000 C 
ATOM      3  O   UNL     1     -46.497-297.836  67.633  0.00  0.00    +0.000 OA
ATOM      4  H   UNL     1     -48.062-296.906  66.401  0.00  0.00    +0.000 HD
ENDROOT
BRANCH   2   5
ATOM      5  C   UNL     1     -47.179-300.080  66.902  0.00  0.00    +0.000 C 
ATOM      6  C   UNL     1     -46.886-300.703  68.278  0.00  0.00    +0.000 C 
ATOM      7  C   UNL     1     -45.439-300.447  68.699  0.00  0.00    +0.000 C 
ATOM      8  C   UNL     1     -44.445-300.909  67.623  0.00  0.00    +0.000 C 
ATOM      9  N   UNL     1     -44.801-300.330  66.344  0.00  0.00    +0.000 N 
ATOM     10  C   UNL     1     -43.918-299.550  65.637  0.00  0.00    +0.000 A 
ATOM     11  N   UNL     1     -44.281-298.324  65.229  0.00  0.00    +0.000 NA
ATOM     12  C   UNL     1     -43.395-297.551  64.575  0.00  0.00    +0.000 A 
ATOM     13  C   UNL     1     -42.167-298.005  64.193  0.00  0.00    +0.000 A 
ATOM     14  C   UNL     1     -41.893-299.292  64.586  0.00  0.00    +0.000 A 
ATOM     15  N   UNL     1     -42.717-300.057  65.337  0.00  0.00    +0.000 NA
ATOM     16  C   UNL     1     -46.153-300.538  65.868  0.00  0.00    +0.000 C 
ENDBRANCH   2   5
BRANCH   1  17
ATOM     17  C   UNL     1     -49.302-298.396  65.535  0.00  0.00    +0.000 C 
BRANCH  17  18
ATOM     18  C   UNL     1     -49.217-298.034  64.055  0.00  0.00    +0.000 C 
BRANCH  18  22
ATOM     19  C   UNL     1     -46.351-300.434  61.905  0.00  0.00    +0.000 A 
ATOM     20  C   UNL     1     -46.043-299.110  62.191  0.00  0.00    +0.000 A 
ATOM     21  C   UNL     1     -46.958-298.328  62.900  0.00  0.00    +0.000 A 
ATOM     22  C   UNL     1     -48.198-298.849  63.308  0.00  0.00    +0.000 A 
ATOM     23  C   UNL     1     -48.494-300.172  63.023  0.00  0.00    +0.000 A 
ATOM     24  C   UNL     1     -47.554-300.955  62.374  0.00  0.00    +0.000 A 
BRANCH  19  25
ATOM     25  O   UNL     1     -45.384-301.198  61.316  0.00  0.00    +0.000 OA
BRANCH  25  27
ATOM     26  C   UNL     1     -44.198-302.461  63.125  0.00  0.00    +0.000 C 
ATOM     27  C   UNL     1     -44.163-301.391  62.045  0.00  0.00    +0.000 C 
ENDBRANCH  25  27
ENDBRANCH  19  25
ENDBRANCH  18  22
ENDBRANCH  17  18
ENDBRANCH   1  17
TORSDOF 6
ENDMDL
MODEL 5
REMARK VINA RESULT:     0.000      6.985     10.721
REMARK INTER + INTRA:          -1.674
REMARK INTER:                   0.000
REMARK INTRA:                  -1.674
REMARK UNBOUND:                -1.675
REMARK  Name = 
REMARK  7 active torsions:
REMARK  status: ('A' for Active; 'I' for Inactive)
REMARK    1  A    between atoms: C_1  and  C_2
REMARK    2  A    between atoms: C_2  and  O_3
REMARK    3  A    between atoms: O_3  and  C_4
REMARK    4  A    between atoms: C_7  and  C_8
REMARK    5  A    between atoms: C_8  and  C_9
REMARK    6  A    between atoms: C_9  and  N_10
REMARK    7  A    between atoms: C_11  and  C_13
REMARK                            x       y       z     vdW  Elec       q    Type
REMARK                         _______ _______ _______ _____ _____    ______ ____
ROOT
ATOM      1  N   UNL     1     -43.072-301.497  55.925  0.00  0.00    +0.000 N 
ATOM      2  C   UNL     1     -44.023-301.894  56.786  0.00  0.00    +0.000 C 
ATOM      3  O   UNL     1     -43.934-303.078  57.111  0.00  0.00    +0.000 OA
ATOM      4  H   UNL     1     -42.477-302.278  55.673  0.00  0.00    +0.000 HD
ENDROOT
BRANCH   2   5
ATOM      5  C   UNL     1     -45.067-300.902  57.258  0.00  0.00    +0.000 C 
ATOM      6  C   UNL     1     -45.370-301.072  58.757  0.00  0.00    +0.000 C 
ATOM      7  C   UNL     1     -46.155-302.358  59.014  0.00  0.00    +0.000 C 
ATOM      8  C   UNL     1     -47.422-302.433  58.149  0.00  0.00    +0.000 C 
ATOM      9  N   UNL     1     -47.080-302.217  56.758  0.00  0.00    +0.000 N 
ATOM     10  C   UNL     1     -47.373-303.149  55.793  0.00  0.00    +0.000 A 
ATOM     11  N   UNL     1     -46.407-303.606  54.981  0.00  0.00    +0.000 NA
ATOM     12  C   UNL     1     -46.696-304.550  54.068  0.00  0.00    +0.000 A 
ATOM     13  C   UNL     1     -47.968-304.985  53.840  0.00  0.00    +0.000 A 
ATOM     14  C   UNL     1     -48.913-304.423  54.662  0.00  0.00    +0.000 A 
ATOM     15  N   UNL     1     -48.642-303.553  55.660  0.00  0.00    +0.000 NA
ATOM     16  C   UNL     1     -46.344-301.014  56.429  0.00  0.00    +0.000 C 
ENDBRANCH   2   5
BRANCH   1  17
ATOM     17  C   UNL     1     -42.746-300.185  55.438  0.00  0.00    +0.000 C 
BRANCH  17  18
ATOM     18  C   UNL     1     -42.911-300.072  53.925  0.00  0.00    +0.000 C 
BRANCH  18  22
ATOM     19  C   UNL     1     -47.040-299.839  52.701  0.00  0.00    +0.000 A 
ATOM     20  C   UNL     1     -46.336-301.017  52.482  0.00  0.00    +0.000 A 
ATOM     21  C   UNL     1     -45.002-301.108  52.888  0.00  0.00    +0.000 A 
ATOM     22  C   UNL     1     -44.350-300.020  53.493  0.00  0.00    +0.000 A 
ATOM     23  C   UNL     1     -45.060-298.851  53.711  0.00  0.00    +0.000 A 
ATOM     24  C   UNL     1     -46.399-298.793  53.361  0.00  0.00    +0.000 A 
BRANCH  19  25
ATOM     25  O   UNL     1     -48.371-299.829  52.399  0.00  0.00    +0.000 OA
BRANCH  25  27
ATOM     26  C   UNL     1     -49.638-300.307  54.506  0.00  0.00    +0.000 C 
ATOM     27  C   UNL     1     -49.214-300.745  53.113  0.00  0.00    +0.000 C 
ENDBRANCH  25  27
ENDBRANCH  19  25
ENDBRANCH  18  22
ENDBRANCH  17  18
ENDBRANCH   1  17
TORSDOF 6
ENDMDL
MODEL 6
REMARK VINA RESULT:     0.000      2.830      6.091
REMARK INTER + INTRA:          -1.674
REMARK INTER:                   0.000
REMARK INTRA:                  -1.674
REMARK UNBOUND:                -1.675
REMARK  Name = 
REMARK  7 active torsions:
REMARK  status: ('A' for Active; 'I' for Inactive)
REMARK    1  A    between atoms: C_1  and  C_2
REMARK    2  A    between atoms: C_2  and  O_3
REMARK    3  A    between atoms: O_3  and  C_4
REMARK    4  A    between atoms: C_7  and  C_8
REMARK    5  A    between atoms: C_8  and  C_9
REMARK    6  A    between atoms: C_9  and  N_10
REMARK    7  A    between atoms: C_11  and  C_13
REMARK                            x       y       z     vdW  Elec       q    Type
REMARK                         _______ _______ _______ _____ _____    ______ ____
ROOT
ATOM      1  N   UNL     1     -48.031-295.175  59.677  0.00  0.00    +0.000 N 
ATOM      2  C   UNL     1     -49.058-296.031  59.802  0.00  0.00    +0.000 C 
ATOM      3  O   UNL     1     -49.996-295.587  60.465  0.00  0.00    +0.000 OA
ATOM      4  H   UNL     1     -48.215-294.326  60.199  0.00  0.00    +0.000 HD
ENDROOT
BRANCH   2   5
ATOM      5  C   UNL     1     -48.978-297.397  59.150  0.00  0.00    +0.000 C 
ATOM      6  C   UNL     1     -50.321-297.801  58.519  0.00  0.00    +0.000 C 
ATOM      7  C   UNL     1     -51.355-298.130  59.595  0.00  0.00    +0.000 C 
ATOM      8  C   UNL     1     -50.832-299.186  60.581  0.00  0.00    +0.000 C 
ATOM      9  N   UNL     1     -49.545-298.774  61.103  0.00  0.00    +0.000 N 
ATOM     10  C   UNL     1     -49.333-298.618  62.451  0.00  0.00    +0.000 A 
ATOM     11  N   UNL     1     -48.837-297.465  62.927  0.00  0.00    +0.000 NA
ATOM     12  C   UNL     1     -48.673-297.308  64.253  0.00  0.00    +0.000 A 
ATOM     13  C   UNL     1     -48.874-298.322  65.142  0.00  0.00    +0.000 A 
ATOM     14  C   UNL     1     -49.315-299.492  64.575  0.00  0.00    +0.000 A 
ATOM     15  N   UNL     1     -49.592-299.651  63.261  0.00  0.00    +0.000 NA
ATOM     16  C   UNL     1     -48.506-298.454  60.146  0.00  0.00    +0.000 C 
ENDBRANCH   2   5
BRANCH   1  17
ATOM     17  C   UNL     1     -46.845-295.256  58.869  0.00  0.00    +0.000 C 
BRANCH  17  18
ATOM     18  C   UNL     1     -45.572-295.268  59.712  0.00  0.00    +0.000 C 
BRANCH  18  22
ATOM     19  C   UNL     1     -44.883-299.057  61.653  0.00  0.00    +0.000 A 
ATOM     20  C   UNL     1     -45.311-297.976  62.414  0.00  0.00    +0.000 A 
ATOM     21  C   UNL     1     -45.552-296.748  61.792  0.00  0.00    +0.000 A 
ATOM     22  C   UNL     1     -45.344-296.578  60.413  0.00  0.00    +0.000 A 
ATOM     23  C   UNL     1     -44.921-297.662  59.661  0.00  0.00    +0.000 A 
ATOM     24  C   UNL     1     -44.746-298.889  60.277  0.00  0.00    +0.000 A 
BRANCH  19  25
ATOM     25  O   UNL     1     -44.773-300.267  62.273  0.00  0.00    +0.000 OA
BRANCH  25  27
ATOM     26  C   UNL     1     -46.889-301.539  61.851  0.00  0.00    +0.000 C 
ATOM     27  C   UNL     1     -45.970-300.831  62.833  0.00  0.00    +0.000 C 
ENDBRANCH  25  27
ENDBRANCH  19  25
ENDBRANCH  18  22
ENDBRANCH  17  18
ENDBRANCH   1  17
TORSDOF 6
ENDMDL
MODEL 7
REMARK VINA RESULT:     0.000      6.056      9.341
REMARK INTER + INTRA:          -1.674
REMARK INTER:                   0.000
REMARK INTRA:                  -1.674
REMARK UNBOUND:                -1.675
REMARK  Name = 
REMARK  7 active torsions:
REMARK  status: ('A' for Active; 'I' for Inactive)
REMARK    1  A    between atoms: C_1  and  C_2
REMARK    2  A    between atoms: C_2  and  O_3
REMARK    3  A    between atoms: O_3  and  C_4
REMARK    4  A    between atoms: C_7  and  C_8
REMARK    5  A    between atoms: C_8  and  C_9
REMARK    6  A    between atoms: C_9  and  N_10
REMARK    7  A    between atoms: C_11  and  C_13
REMARK                            x       y       z     vdW  Elec       q    Type
REMARK                         _______ _______ _______ _____ _____    ______ ____
ROOT
ATOM      1  N   UNL     1     -44.918-296.798  59.404  0.00  0.00    +0.000 N 
ATOM      2  C   UNL     1     -46.038-296.058  59.427  0.00  0.00    +0.000 C 
ATOM      3  O   UNL     1     -46.927-296.525  60.139  0.00  0.00    +0.000 OA
ATOM      4  H   UNL     1     -45.040-297.638  59.957  0.00  0.00    +0.000 HD
ENDROOT
BRANCH   2   5
ATOM      5  C   UNL     1     -46.106-294.777  58.619  0.00  0.00    +0.000 C 
ATOM      6  C   UNL     1     -46.819-293.657  59.396  0.00  0.00    +0.000 C 
ATOM      7  C   UNL     1     -48.319-293.931  59.500  0.00  0.00    +0.000 C 
ATOM      8  C   UNL     1     -48.948-294.179  58.121  0.00  0.00    +0.000 C 
ATOM      9  N   UNL     1     -48.206-295.207  57.420  0.00  0.00    +0.000 N 
ATOM     10  C   UNL     1     -48.813-296.357  56.978  0.00  0.00    +0.000 A 
ATOM     11  N   UNL     1     -48.315-297.556  57.321  0.00  0.00    +0.000 NA
ATOM     12  C   UNL     1     -48.942-298.676  56.919  0.00  0.00    +0.000 A 
ATOM     13  C   UNL     1     -50.005-298.656  56.065  0.00  0.00    +0.000 A 
ATOM     14  C   UNL     1     -50.415-297.396  55.703  0.00  0.00    +0.000 A 
ATOM     15  N   UNL     1     -49.876-296.249  56.174  0.00  0.00    +0.000 NA
ATOM     16  C   UNL     1     -46.778-295.016  57.269  0.00  0.00    +0.000 C 
ENDBRANCH   2   5
BRANCH   1  17
ATOM     17  C   UNL     1     -43.630-296.519  58.832  0.00  0.00    +0.000 C 
BRANCH  17  18
ATOM     18  C   UNL     1     -43.251-297.522  57.744  0.00  0.00    +0.000 C 
BRANCH  18  22
ATOM     19  C   UNL     1     -45.379-296.871  54.050  0.00  0.00    +0.000 A 
ATOM     20  C   UNL     1     -45.729-297.952  54.849  0.00  0.00    +0.000 A 
ATOM     21  C   UNL     1     -45.056-298.163  56.056  0.00  0.00    +0.000 A 
ATOM     22  C   UNL     1     -44.013-297.316  56.464  0.00  0.00    +0.000 A 
ATOM     23  C   UNL     1     -43.673-296.238  55.664  0.00  0.00    +0.000 A 
ATOM     24  C   UNL     1     -44.388-296.003  54.502  0.00  0.00    +0.000 A 
BRANCH  19  25
ATOM     25  O   UNL     1     -46.137-296.630  52.941  0.00  0.00    +0.000 OA
BRANCH  25  27
ATOM     26  C   UNL     1     -47.846-294.901  53.542  0.00  0.00    +0.000 C 
ATOM     27  C   UNL     1     -47.527-296.333  53.145  0.00  0.00    +0.000 C 
ENDBRANCH  25  27
ENDBRANCH  19  25
ENDBRANCH  18  22
ENDBRANCH  17  18
ENDBRANCH   1  17
TORSDOF 6
ENDMDL
MODEL 8
REMARK VINA RESULT:     0.001     10.169     12.280
REMARK INTER + INTRA:          -1.674
REMARK INTER:                   0.000
REMARK INTRA:                  -1.674
REMARK UNBOUND:                -1.675
REMARK  Name = 
REMARK  7 active torsions:
REMARK  status: ('A' for Active; 'I' for Inactive)
REMARK    1  A    between atoms: C_1  and  C_2
REMARK    2  A    between atoms: C_2  and  O_3
REMARK    3  A    between atoms: O_3  and  C_4
REMARK    4  A    between atoms: C_7  and  C_8
REMARK    5  A    between atoms: C_8  and  C_9
REMARK    6  A    between atoms: C_9  and  N_10
REMARK    7  A    between atoms: C_11  and  C_13
REMARK                            x       y       z     vdW  Elec       q    Type
REMARK                         _______ _______ _______ _____ _____    ______ ____
ROOT
ATOM      1  N   UNL     1     -51.674-296.469  54.510  0.00  0.00    +0.000 N 
ATOM      2  C   UNL     1     -51.948-295.366  55.226  0.00  0.00    +0.000 C 
ATOM      3  O   UNL     1     -53.037-294.858  54.959  0.00  0.00    +0.000 OA
ATOM      4  H   UNL     1     -52.417-296.649  53.845  0.00  0.00    +0.000 HD
ENDROOT
BRANCH   2   5
ATOM      5  C   UNL     1     -50.944-294.869  56.247  0.00  0.00    +0.000 C 
ATOM      6  C   UNL     1     -51.639-294.381  57.530  0.00  0.00    +0.000 C 
ATOM      7  C   UNL     1     -52.376-293.065  57.287  0.00  0.00    +0.000 C 
ATOM      8  C   UNL     1     -51.451-291.999  56.682  0.00  0.00    +0.000 C 
ATOM      9  N   UNL     1     -50.790-292.532  55.509  0.00  0.00    +0.000 N 
ATOM     10  C   UNL     1     -50.909-291.929  54.280  0.00  0.00    +0.000 A 
ATOM     11  N   UNL     1     -51.313-292.641  53.216  0.00  0.00    +0.000 NA
ATOM     12  C   UNL     1     -51.468-292.031  52.027  0.00  0.00    +0.000 A 
ATOM     13  C   UNL     1     -51.112-290.732  51.817  0.00  0.00    +0.000 A 
ATOM     14  C   UNL     1     -50.642-290.087  52.935  0.00  0.00    +0.000 A 
ATOM     15  N   UNL     1     -50.576-290.638  54.168  0.00  0.00    +0.000 NA
ATOM     16  C   UNL     1     -50.058-293.773  55.658  0.00  0.00    +0.000 C 
ENDBRANCH   2   5
BRANCH   1  17
ATOM     17  C   UNL     1     -50.601-297.416  54.633  0.00  0.00    +0.000 C 
BRANCH  17  18
ATOM     18  C   UNL     1     -49.729-297.467  53.380  0.00  0.00    +0.000 C 
BRANCH  18  22
ATOM     19  C   UNL     1     -47.103-294.066  53.024  0.00  0.00    +0.000 A 
ATOM     20  C   UNL     1     -48.211-294.152  52.191  0.00  0.00    +0.000 A 
ATOM     21  C   UNL     1     -49.077-295.243  52.308  0.00  0.00    +0.000 A 
ATOM     22  C   UNL     1     -48.833-296.268  53.238  0.00  0.00    +0.000 A 
ATOM     23  C   UNL     1     -47.729-296.171  54.067  0.00  0.00    +0.000 A 
ATOM     24  C   UNL     1     -46.912-295.056  53.985  0.00  0.00    +0.000 A 
BRANCH  19  25
ATOM     25  O   UNL     1     -46.349-292.930  52.961  0.00  0.00    +0.000 OA
BRANCH  25  27
ATOM     26  C   UNL     1     -47.124-291.393  54.781  0.00  0.00    +0.000 C 
ATOM     27  C   UNL     1     -46.994-291.692  53.296  0.00  0.00    +0.000 C 
ENDBRANCH  25  27
ENDBRANCH  19  25
ENDBRANCH  18  22
ENDBRANCH  17  18
ENDBRANCH   1  17
TORSDOF 6
ENDMDL
MODEL 9
REMARK VINA RESULT:     0.001      4.291      7.149
REMARK INTER + INTRA:          -1.673
REMARK INTER:                   0.000
REMARK INTRA:                  -1.673
REMARK UNBOUND:                -1.675
REMARK  Name = 
REMARK  7 active torsions:
REMARK  status: ('A' for Active; 'I' for Inactive)
REMARK    1  A    between atoms: C_1  and  C_2
REMARK    2  A    between atoms: C_2  and  O_3
REMARK    3  A    between atoms: O_3  and  C_4
REMARK    4  A    between atoms: C_7  and  C_8
REMARK    5  A    between atoms: C_8  and  C_9
REMARK    6  A    between atoms: C_9  and  N_10
REMARK    7  A    between atoms: C_11  and  C_13
REMARK                            x       y       z     vdW  Elec       q    Type
REMARK                         _______ _______ _______ _____ _____    ______ ____
ROOT
ATOM      1  N   UNL     1     -43.604-300.417  60.357  0.00  0.00    +0.000 N 
ATOM      2  C   UNL     1     -43.476-301.677  59.909  0.00  0.00    +0.000 C 
ATOM      3  O   UNL     1     -44.404-302.044  59.188  0.00  0.00    +0.000 OA
ATOM      4  H   UNL     1     -44.481-300.019  60.040  0.00  0.00    +0.000 HD
ENDROOT
BRANCH   2   5
ATOM      5  C   UNL     1     -42.264-302.493  60.309  0.00  0.00    +0.000 C 
ATOM      6  C   UNL     1     -41.732-303.327  59.131  0.00  0.00    +0.000 C 
ATOM      7  C   UNL     1     -42.678-304.483  58.806  0.00  0.00    +0.000 C 
ATOM      8  C   UNL     1     -42.972-305.342  60.045  0.00  0.00    +0.000 C 
ATOM      9  N   UNL     1     -43.421-304.496  61.133  0.00  0.00    +0.000 N 
ATOM     10  C   UNL     1     -44.638-304.691  61.739  0.00  0.00    +0.000 A 
ATOM     11  N   UNL     1     -45.510-303.676  61.842  0.00  0.00    +0.000 NA
ATOM     12  C   UNL     1     -46.716-303.888  62.399  0.00  0.00    +0.000 A 
ATOM     13  C   UNL     1     -47.056-305.072  62.984  0.00  0.00    +0.000 A 
ATOM     14  C   UNL     1     -46.087-306.042  62.901  0.00  0.00    +0.000 A 
ATOM     15  N   UNL     1     -44.909-305.896  62.254  0.00  0.00    +0.000 NA
ATOM     16  C   UNL     1     -42.574-303.384  61.510  0.00  0.00    +0.000 C 
ENDBRANCH   2   5
BRANCH   1  17
ATOM     17  C   UNL     1     -42.680-299.587  61.078  0.00  0.00    +0.000 C 
BRANCH  17  18
ATOM     18  C   UNL     1     -43.215-299.183  62.450  0.00  0.00    +0.000 C 
BRANCH  18  22
ATOM     19  C   UNL     1     -43.056-302.394  65.324  0.00  0.00    +0.000 A 
ATOM     20  C   UNL     1     -44.286-302.022  64.795  0.00  0.00    +0.000 A 
ATOM     21  C   UNL     1     -44.346-300.993  63.851  0.00  0.00    +0.000 A 
ATOM     22  C   UNL     1     -43.188-300.308  63.446  0.00  0.00    +0.000 A 
ATOM     23  C   UNL     1     -41.967-300.689  63.975  0.00  0.00    +0.000 A 
ATOM     24  C   UNL     1     -41.910-301.751  64.862  0.00  0.00    +0.000 A 
BRANCH  19  25
ATOM     25  O   UNL     1     -43.023-303.480  66.150  0.00  0.00    +0.000 OA
BRANCH  25  27
ATOM     26  C   UNL     1     -42.390-305.473  64.773  0.00  0.00    +0.000 C 
ATOM     27  C   UNL     1     -43.435-304.740  65.599  0.00  0.00    +0.000 C 
ENDBRANCH  25  27
ENDBRANCH  19  25
ENDBRANCH  18  22
ENDBRANCH  17  18
ENDBRANCH   1  17
TORSDOF 6
ENDMDL
MODEL 10
REMARK VINA RESULT:     0.001      2.593      4.103
REMARK INTER + INTRA:          -1.673
REMARK INTER:                   0.000
REMARK INTRA:                  -1.673
REMARK UNBOUND:                -1.675
REMARK  Name = 
REMARK  7 active torsions:
REMARK  status: ('A' for Active; 'I' for Inactive)
REMARK    1  A    between atoms: C_1  and  C_2
REMARK    2  A    between atoms: C_2  and  O_3
REMARK    3  A    between atoms: O_3  and  C_4
REMARK    4  A    between atoms: C_7  and  C_8
REMARK    5  A    between atoms: C_8  and  C_9
REMARK    6  A    between atoms: C_9  and  N_10
REMARK    7  A    between atoms: C_11  and  C_13
REMARK                            x       y       z     vdW  Elec       q    Type
REMARK                         _______ _______ _______ _____ _____    ______ ____
ROOT
ATOM      1  N   UNL     1     -44.935-302.052  59.284  0.00  0.00    +0.000 N 
ATOM      2  C   UNL     1     -44.270-300.885  59.288  0.00  0.00    +0.000 C 
ATOM      3  O   UNL     1     -43.045-301.012  59.276  0.00  0.00    +0.000 OA
ATOM      4  H   UNL     1     -44.283-302.828  59.314  0.00  0.00    +0.000 HD
ENDROOT
BRANCH   2   5
ATOM      5  C   UNL     1     -45.045-299.583  59.305  0.00  0.00    +0.000 C 
ATOM      6  C   UNL     1     -44.404-298.533  58.380  0.00  0.00    +0.000 C 
ATOM      7  C   UNL     1     -43.091-298.016  58.964  0.00  0.00    +0.000 C 
ATOM      8  C   UNL     1     -43.272-297.498  60.399  0.00  0.00    +0.000 C 
ATOM      9  N   UNL     1     -43.923-298.509  61.207  0.00  0.00    +0.000 N 
ATOM     10  C   UNL     1     -43.339-299.002  62.349  0.00  0.00    +0.000 A 
ATOM     11  N   UNL     1     -43.178-300.325  62.507  0.00  0.00    +0.000 NA
ATOM     12  C   UNL     1     -42.567-300.794  63.610  0.00  0.00    +0.000 A 
ATOM     13  C   UNL     1     -42.205-299.987  64.648  0.00  0.00    +0.000 A 
ATOM     14  C   UNL     1     -42.464-298.654  64.443  0.00  0.00    +0.000 A 
ATOM     15  N   UNL     1     -42.977-298.137  63.305  0.00  0.00    +0.000 NA
ATOM     16  C   UNL     1     -45.180-299.044  60.727  0.00  0.00    +0.000 C 
ENDBRANCH   2   5
BRANCH   1  17
ATOM     17  C   UNL     1     -46.338-302.323  59.141  0.00  0.00    +0.000 C 
BRANCH  17  18
ATOM     18  C   UNL     1     -46.921-303.017  60.370  0.00  0.00    +0.000 C 
BRANCH  18  22
ATOM     19  C   UNL     1     -47.462-300.338  63.706  0.00  0.00    +0.000 A 
ATOM     20  C   UNL     1     -46.426-301.263  63.744  0.00  0.00    +0.000 A 
ATOM     21  C   UNL     1     -46.233-302.125  62.661  0.00  0.00    +0.000 A 
ATOM     22  C   UNL     1     -47.084-302.092  61.544  0.00  0.00    +0.000 A 
ATOM     23  C   UNL     1     -48.112-301.165  61.513  0.00  0.00    +0.000 A 
ATOM     24  C   UNL     1     -48.256-300.274  62.563  0.00  0.00    +0.000 A 
BRANCH  19  25
ATOM     25  O   UNL     1     -47.545-299.436  64.727  0.00  0.00    +0.000 OA
BRANCH  25  27
ATOM     26  C   UNL     1     -46.405-297.333  63.985  0.00  0.00    +0.000 C 
ATOM     27  C   UNL     1     -46.437-298.541  64.907  0.00  0.00    +0.000 C 
ENDBRANCH  25  27
ENDBRANCH  19  25
ENDBRANCH  18  22
ENDBRANCH  17  18
ENDBRANCH   1  17
TORSDOF 6
ENDMDL
