MODEL 1
REMARK VINA RESULT:     0.000      0.000      0.000
REMARK INTER + INTRA:          -1.853
REMARK INTER:                   0.000
REMARK INTRA:                  -1.853
REMARK UNBOUND:                -1.853
REMARK  Name = 
REMARK  9 active torsions:
REMARK  status: ('A' for Active; 'I' for Inactive)
REMARK    1  A    between atoms: C_1  and  C_2
REMARK    2  A    between atoms: C_2  and  C_3
REMARK    3  A    between atoms: C_3  and  C_4
REMARK    4  A    between atoms: C_3  and  C_5
REMARK    5  A    between atoms: C_5  and  N_6
REMARK    6  A    between atoms: C_10  and  C_11
REMARK    7  A    between atoms: C_11  and  O_12
REMARK    8  A    between atoms: O_12  and  C_13
REMARK    9  A    between atoms: C_13  and  C_15
REMARK                            x       y       z     vdW  Elec       q    Type
REMARK                         _______ _______ _______ _____ _____    ______ ____
ROOT
ATOM      1  C   UNL     1     -43.642-296.714  61.965  0.00  0.00    +0.000 C 
ENDROOT
BRANCH   1   6
ATOM      2  N   UNL     1     -43.085-292.919  61.623  0.00  0.00    +0.000 NA
ATOM      3  C   UNL     1     -44.453-292.461  61.927  0.00  0.00    +0.000 C 
ATOM      4  C   UNL     1     -45.100-293.337  63.027  0.00  0.00    +0.000 C 
ATOM      5  O   UNL     1     -45.183-294.748  62.632  0.00  0.00    +0.000 OA
ATOM      6  C   UNL     1     -43.846-295.227  62.359  0.00  0.00    +0.000 C 
ATOM      7  C   UNL     1     -43.260-294.325  61.272  0.00  0.00    +0.000 C 
BRANCH   2   8
ATOM      8  C   UNL     1     -42.100-292.658  62.705  0.00  0.00    +0.000 C 
BRANCH   8   9
ATOM      9  C   UNL     1     -40.728-293.392  62.719  0.00  0.00    +0.000 C 
ATOM     10  C   UNL     1     -40.538-294.290  63.926  0.00  0.00    +0.000 C 
BRANCH   9  12
ATOM     11  C   UNL     1     -38.438-293.012  63.589  0.00  0.00    +0.000 C 
ATOM     12  C   UNL     1     -39.484-292.524  62.583  0.00  0.00    +0.000 C 
ENDBRANCH   9  12
ENDBRANCH   8   9
ENDBRANCH   2   8
ENDBRANCH   1   6
BRANCH   1  13
ATOM     13  O   UNL     1     -42.307-297.291  62.311  0.00  0.00    +0.000 OA
BRANCH  13  14
ATOM     14  C   UNL     1     -41.450-297.759  61.330  0.00  0.00    +0.000 C 
ATOM     15  O   UNL     1     -41.643-298.735  60.648  0.00  0.00    +0.000 OA
BRANCH  14  16
ATOM     16  C   UNL     1     -40.229-296.886  61.107  0.00  0.00    +0.000 A 
ATOM     17  C   UNL     1     -39.080-297.042  61.990  0.00  0.00    +0.000 A 
ATOM     18  C   UNL     1     -37.940-296.347  61.814  0.00  0.00    +0.000 A 
ATOM     19  C   UNL     1     -37.858-295.355  60.800  0.00  0.00    +0.000 A 
ATOM     20  N   UNL     1     -36.912-294.518  60.437  0.00  0.00    +0.000 NA
ATOM     21  N   UNL     1     -37.428-293.698  59.458  0.00  0.00    +0.000 NA
ATOM     22  C   UNL     1     -38.674-294.065  59.243  0.00  0.00    +0.000 A 
ATOM     23  N   UNL     1     -38.979-295.161  60.012  0.00  0.00    +0.000 N 
ATOM     24  C   UNL     1     -40.133-295.955  60.113  0.00  0.00    +0.000 A 
ENDBRANCH  14  16
ENDBRANCH  13  14
ENDBRANCH   1  13
TORSDOF 7
ENDMDL
MODEL 2
REMARK VINA RESULT:     0.000     11.478     13.385
REMARK INTER + INTRA:          -1.853
REMARK INTER:                   0.000
REMARK INTRA:                  -1.853
REMARK UNBOUND:                -1.853
REMARK  Name = 
REMARK  9 active torsions:
REMARK  status: ('A' for Active; 'I' for Inactive)
REMARK    1  A    between atoms: C_1  and  C_2
REMARK    2  A    between atoms: C_2  and  C_3
REMARK    3  A    between atoms: C_3  and  C_4
REMARK    4  A    between atoms: C_3  and  C_5
REMARK    5  A    between atoms: C_5  and  N_6
REMARK    6  A    between atoms: C_10  and  C_11
REMARK    7  A    between atoms: C_11  and  O_12
REMARK    8  A    between atoms: O_12  and  C_13
REMARK    9  A    between atoms: C_13  and  C_15
REMARK                            x       y       z     vdW  Elec       q    Type
REMARK                         _______ _______ _______ _____ _____    ______ ____
ROOT
ATOM      1  C   UNL     1     -46.208-306.028  56.455  0.00  0.00    +0.000 C 
ENDROOT
BRANCH   1   6
ATOM      2  N   UNL     1     -49.443-305.883  58.540  0.00  0.00    +0.000 NA
ATOM      3  C   UNL     1     -49.260-307.116  59.328  0.00  0.00    +0.000 C 
ATOM      4  C   UNL     1     -47.772-307.319  59.702  0.00  0.00    +0.000 C 
ATOM      5  O   UNL     1     -46.912-307.419  58.517  0.00  0.00    +0.000 OA
ATOM      6  C   UNL     1     -47.053-306.205  57.745  0.00  0.00    +0.000 C 
ATOM      7  C   UNL     1     -48.537-306.057  57.408  0.00  0.00    +0.000 C 
BRANCH   2   8
ATOM      8  C   UNL     1     -49.248-304.629  59.316  0.00  0.00    +0.000 C 
BRANCH   8   9
ATOM      9  C   UNL     1     -49.032-303.273  58.584  0.00  0.00    +0.000 C 
ATOM     10  C   UNL     1     -47.678-302.649  58.859  0.00  0.00    +0.000 C 
BRANCH   9  12
ATOM     11  C   UNL     1     -49.389-300.860  59.024  0.00  0.00    +0.000 C 
ATOM     12  C   UNL     1     -50.092-302.201  58.800  0.00  0.00    +0.000 C 
ENDBRANCH   9  12
ENDBRANCH   8   9
ENDBRANCH   2   8
ENDBRANCH   1   6
BRANCH   1  13
ATOM     13  O   UNL     1     -45.905-304.614  56.077  0.00  0.00    +0.000 OA
BRANCH  13  14
ATOM     14  C   UNL     1     -46.354-304.077  54.883  0.00  0.00    +0.000 C 
ATOM     15  O   UNL     1     -45.968-304.402  53.787  0.00  0.00    +0.000 OA
BRANCH  14  16
ATOM     16  C   UNL     1     -47.463-303.054  55.042  0.00  0.00    +0.000 A 
ATOM     17  C   UNL     1     -47.113-301.677  55.369  0.00  0.00    +0.000 A 
ATOM     18  C   UNL     1     -48.038-300.704  55.464  0.00  0.00    +0.000 A 
ATOM     19  C   UNL     1     -49.418-301.017  55.339  0.00  0.00    +0.000 A 
ATOM     20  N   UNL     1     -50.514-300.295  55.426  0.00  0.00    +0.000 NA
ATOM     21  N   UNL     1     -51.589-301.150  55.332  0.00  0.00    +0.000 NA
ATOM     22  C   UNL     1     -51.119-302.371  55.180  0.00  0.00    +0.000 A 
ATOM     23  N   UNL     1     -49.748-302.339  55.100  0.00  0.00    +0.000 N 
ATOM     24  C   UNL     1     -48.789-303.342  54.889  0.00  0.00    +0.000 A 
ENDBRANCH  14  16
ENDBRANCH  13  14
ENDBRANCH   1  13
TORSDOF 7
ENDMDL
MODEL 3
REMARK VINA RESULT:     0.000      5.553      8.477
REMARK INTER + INTRA:          -1.853
REMARK INTER:                   0.000
REMARK INTRA:                  -1.853
REMARK UNBOUND:                -1.853
REMARK  Name = 
REMARK  9 active torsions:
REMARK  status: ('A' for Active; 'I' for Inactive)
REMARK    1  A    between atoms: C_1  and  C_2
REMARK    2  A    between atoms: C_2  and  C_3
REMARK    3  A    between atoms: C_3  and  C_4
REMARK    4  A    between atoms: C_3  and  C_5
REMARK    5  A    between atoms: C_5  and  N_6
REMARK    6  A    between atoms: C_10  and  C_11
REMARK    7  A    between atoms: C_11  and  O_12
REMARK    8  A    between atoms: O_12  and  C_13
REMARK    9  A    between atoms: C_13  and  C_15
REMARK                            x       y       z     vdW  Elec       q    Type
REMARK                         _______ _______ _______ _____ _____    ______ ____
ROOT
ATOM      1  C   UNL     1     -42.381-302.972  60.742  0.00  0.00    +0.000 C 
ENDROOT
BRANCH   1   6
ATOM      2  N   UNL     1     -40.820-301.772  64.052  0.00  0.00    +0.000 NA
ATOM      3  C   UNL     1     -39.509-302.436  63.938  0.00  0.00    +0.000 C 
ATOM      4  C   UNL     1     -39.010-302.428  62.473  0.00  0.00    +0.000 C 
ATOM      5  O   UNL     1     -39.936-303.121  61.569  0.00  0.00    +0.000 OA
ATOM      6  C   UNL     1     -41.223-302.465  61.643  0.00  0.00    +0.000 C 
ATOM      7  C   UNL     1     -41.661-302.501  63.107  0.00  0.00    +0.000 C 
BRANCH   2   8
ATOM      8  C   UNL     1     -40.778-300.299  63.852  0.00  0.00    +0.000 C 
BRANCH   8   9
ATOM      9  C   UNL     1     -42.084-299.502  63.569  0.00  0.00    +0.000 C 
ATOM     10  C   UNL     1     -42.100-298.833  62.209  0.00  0.00    +0.000 C 
BRANCH   9  12
ATOM     11  C   UNL     1     -42.945-297.198  63.871  0.00  0.00    +0.000 C 
ATOM     12  C   UNL     1     -42.492-298.463  64.604  0.00  0.00    +0.000 C 
ENDBRANCH   9  12
ENDBRANCH   8   9
ENDBRANCH   2   8
ENDBRANCH   1   6
BRANCH   1  13
ATOM     13  O   UNL     1     -43.419-301.952  60.399  0.00  0.00    +0.000 OA
BRANCH  13  14
ATOM     14  C   UNL     1     -44.735-302.103  60.799  0.00  0.00    +0.000 C 
ATOM     15  O   UNL     1     -45.490-302.953  60.396  0.00  0.00    +0.000 OA
BRANCH  14  16
ATOM     16  C   UNL     1     -45.169-301.129  61.878  0.00  0.00    +0.000 A 
ATOM     17  C   UNL     1     -45.569-299.780  61.493  0.00  0.00    +0.000 A 
ATOM     18  C   UNL     1     -46.025-298.883  62.387  0.00  0.00    +0.000 A 
ATOM     19  C   UNL     1     -46.040-299.201  63.772  0.00  0.00    +0.000 A 
ATOM     20  N   UNL     1     -46.384-298.523  64.845  0.00  0.00    +0.000 NA
ATOM     21  N   UNL     1     -46.083-299.296  65.945  0.00  0.00    +0.000 NA
ATOM     22  C   UNL     1     -45.573-300.430  65.512  0.00  0.00    +0.000 A 
ATOM     23  N   UNL     1     -45.591-300.458  64.138  0.00  0.00    +0.000 N 
ATOM     24  C   UNL     1     -45.219-301.439  63.206  0.00  0.00    +0.000 A 
ENDBRANCH  14  16
ENDBRANCH  13  14
ENDBRANCH   1  13
TORSDOF 7
ENDMDL
MODEL 4
REMARK VINA RESULT:     0.000      6.044      8.623
REMARK INTER + INTRA:          -1.853
REMARK INTER:                   0.000
REMARK INTRA:                  -1.853
REMARK UNBOUND:                -1.853
REMARK  Name = 
REMARK  9 active torsions:
REMARK  status: ('A' for Active; 'I' for Inactive)
REMARK    1  A    between atoms: C_1  and  C_2
REMARK    2  A    between atoms: C_2  and  C_3
REMARK    3  A    between atoms: C_3  and  C_4
REMARK    4  A    between atoms: C_3  and  C_5
REMARK    5  A    between atoms: C_5  and  N_6
REMARK    6  A    between atoms: C_10  and  C_11
REMARK    7  A    between atoms: C_11  and  O_12
REMARK    8  A    between atoms: O_12  and  C_13
REMARK    9  A    between atoms: C_13  and  C_15
REMARK                            x       y       z     vdW  Elec       q    Type
REMARK                         _______ _______ _______ _____ _____    ______ ____
ROOT
ATOM      1  C   UNL     1     -45.773-301.648  63.375  0.00  0.00    +0.000 C 
ENDROOT
BRANCH   1   6
ATOM      2  N   UNL     1     -44.183-304.812  61.861  0.00  0.00    +0.000 NA
ATOM      3  C   UNL     1     -45.229-305.787  62.223  0.00  0.00    +0.000 C 
ATOM      4  C   UNL     1     -46.637-305.156  62.108  0.00  0.00    +0.000 C 
ATOM      5  O   UNL     1     -46.795-303.991  62.986  0.00  0.00    +0.000 OA
ATOM      6  C   UNL     1     -45.797-303.008  62.627  0.00  0.00    +0.000 C 
ATOM      7  C   UNL     1     -44.433-303.686  62.756  0.00  0.00    +0.000 C 
BRANCH   2   8
ATOM      8  C   UNL     1     -44.143-304.470  60.415  0.00  0.00    +0.000 C 
BRANCH   8   9
ATOM      9  C   UNL     1     -43.375-303.209  59.922  0.00  0.00    +0.000 C 
ATOM     10  C   UNL     1     -44.271-302.173  59.272  0.00  0.00    +0.000 C 
BRANCH   9  12
ATOM     11  C   UNL     1     -42.247-302.422  57.860  0.00  0.00    +0.000 C 
ATOM     12  C   UNL     1     -42.190-303.446  58.996  0.00  0.00    +0.000 C 
ENDBRANCH   9  12
ENDBRANCH   8   9
ENDBRANCH   2   8
ENDBRANCH   1   6
BRANCH   1  13
ATOM     13  O   UNL     1     -45.203-300.502  62.601  0.00  0.00    +0.000 OA
BRANCH  13  14
ATOM     14  C   UNL     1     -44.065-299.841  63.031  0.00  0.00    +0.000 C 
ATOM     15  O   UNL     1     -43.993-299.155  64.021  0.00  0.00    +0.000 OA
BRANCH  14  16
ATOM     16  C   UNL     1     -42.838-300.101  62.177  0.00  0.00    +0.000 A 
ATOM     17  C   UNL     1     -42.659-299.339  60.948  0.00  0.00    +0.000 A 
ATOM     18  C   UNL     1     -41.565-299.470  60.173  0.00  0.00    +0.000 A 
ATOM     19  C   UNL     1     -40.581-300.444  60.490  0.00  0.00    +0.000 A 
ATOM     20  N   UNL     1     -39.462-300.813  59.906  0.00  0.00    +0.000 NA
ATOM     21  N   UNL     1     -38.963-301.895  60.597  0.00  0.00    +0.000 NA
ATOM     22  C   UNL     1     -39.787-302.151  61.592  0.00  0.00    +0.000 A 
ATOM     23  N   UNL     1     -40.793-301.215  61.620  0.00  0.00    +0.000 N 
ATOM     24  C   UNL     1     -41.871-301.011  62.494  0.00  0.00    +0.000 A 
ENDBRANCH  14  16
ENDBRANCH  13  14
ENDBRANCH   1  13
TORSDOF 7
ENDMDL
MODEL 5
REMARK VINA RESULT:     0.000      2.868      4.750
REMARK INTER + INTRA:          -1.853
REMARK INTER:                   0.000
REMARK INTRA:                  -1.853
REMARK UNBOUND:                -1.853
REMARK  Name = 
REMARK  9 active torsions:
REMARK  status: ('A' for Active; 'I' for Inactive)
REMARK    1  A    between atoms: C_1  and  C_2
REMARK    2  A    between atoms: C_2  and  C_3
REMARK    3  A    between atoms: C_3  and  C_4
REMARK    4  A    between atoms: C_3  and  C_5
REMARK    5  A    between atoms: C_5  and  N_6
REMARK    6  A    between atoms: C_10  and  C_11
REMARK    7  A    between atoms: C_11  and  O_12
REMARK    8  A    between atoms: O_12  and  C_13
REMARK    9  A    between atoms: C_13  and  C_15
REMARK                            x       y       z     vdW  Elec       q    Type
REMARK                         _______ _______ _______ _____ _____    ______ ____
ROOT
ATOM      1  C   UNL     1     -38.870-299.371  62.283  0.00  0.00    +0.000 C 
ENDROOT
BRANCH   1   6
ATOM      2  N   UNL     1     -39.994-296.915  59.538  0.00  0.00    +0.000 NA
ATOM      3  C   UNL     1     -40.434-297.892  58.526  0.00  0.00    +0.000 C 
ATOM      4  C   UNL     1     -41.114-299.113  59.192  0.00  0.00    +0.000 C 
ATOM      5  O   UNL     1     -40.214-299.810  60.119  0.00  0.00    +0.000 OA
ATOM      6  C   UNL     1     -39.795-298.876  61.140  0.00  0.00    +0.000 C 
ATOM      7  C   UNL     1     -39.136-297.696  60.424  0.00  0.00    +0.000 C 
BRANCH   2   8
ATOM      8  C   UNL     1     -41.106-296.194  60.213  0.00  0.00    +0.000 C 
BRANCH   8   9
ATOM      9  C   UNL     1     -40.856-295.423  61.541  0.00  0.00    +0.000 C 
ATOM     10  C   UNL     1     -41.636-295.979  62.716  0.00  0.00    +0.000 C 
BRANCH   9  12
ATOM     11  C   UNL     1     -41.831-293.506  62.775  0.00  0.00    +0.000 C 
ATOM     12  C   UNL     1     -41.071-293.915  61.511  0.00  0.00    +0.000 C 
ENDBRANCH   9  12
ENDBRANCH   8   9
ENDBRANCH   2   8
ENDBRANCH   1   6
BRANCH   1  13
ATOM     13  O   UNL     1     -38.994-298.629  63.575  0.00  0.00    +0.000 OA
BRANCH  13  14
ATOM     14  C   UNL     1     -37.922-297.938  64.113  0.00  0.00    +0.000 C 
ATOM     15  O   UNL     1     -36.925-298.446  64.562  0.00  0.00    +0.000 OA
BRANCH  14  16
ATOM     16  C   UNL     1     -38.056-296.429  64.035  0.00  0.00    +0.000 A 
ATOM     17  C   UNL     1     -38.828-295.735  65.059  0.00  0.00    +0.000 A 
ATOM     18  C   UNL     1     -38.937-294.393  65.091  0.00  0.00    +0.000 A 
ATOM     19  C   UNL     1     -38.372-293.608  64.051  0.00  0.00    +0.000 A 
ATOM     20  N   UNL     1     -38.360-292.315  63.807  0.00  0.00    +0.000 NA
ATOM     21  N   UNL     1     -37.755-292.123  62.585  0.00  0.00    +0.000 NA
ATOM     22  C   UNL     1     -37.405-293.305  62.120  0.00  0.00    +0.000 A 
ATOM     23  N   UNL     1     -37.702-294.278  63.042  0.00  0.00    +0.000 N 
ATOM     24  C   UNL     1     -37.486-295.665  63.058  0.00  0.00    +0.000 A 
ENDBRANCH  14  16
ENDBRANCH  13  14
ENDBRANCH   1  13
TORSDOF 7
ENDMDL
MODEL 6
REMARK VINA RESULT:     0.000     10.048     12.063
REMARK INTER + INTRA:          -1.852
REMARK INTER:                   0.000
REMARK INTRA:                  -1.852
REMARK UNBOUND:                -1.853
REMARK  Name = 
REMARK  9 active torsions:
REMARK  status: ('A' for Active; 'I' for Inactive)
REMARK    1  A    between atoms: C_1  and  C_2
REMARK    2  A    between atoms: C_2  and  C_3
REMARK    3  A    between atoms: C_3  and  C_4
REMARK    4  A    between atoms: C_3  and  C_5
REMARK    5  A    between atoms: C_5  and  N_6
REMARK    6  A    between atoms: C_10  and  C_11
REMARK    7  A    between atoms: C_11  and  O_12
REMARK    8  A    between atoms: O_12  and  C_13
REMARK    9  A    between atoms: C_13  and  C_15
REMARK                            x       y       z     vdW  Elec       q    Type
REMARK                         _______ _______ _______ _____ _____    ______ ____
ROOT
ATOM      1  C   UNL     1     -47.525-304.729  53.551  0.00  0.00    +0.000 C 
ENDROOT
BRANCH   1   6
ATOM      2  N   UNL     1     -45.136-301.751  54.049  0.00  0.00    +0.000 NA
ATOM      3  C   UNL     1     -45.638-300.875  52.974  0.00  0.00    +0.000 C 
ATOM      4  C   UNL     1     -47.176-300.983  52.844  0.00  0.00    +0.000 C 
ATOM      5  O   UNL     1     -47.611-302.352  52.540  0.00  0.00    +0.000 OA
ATOM      6  C   UNL     1     -47.156-303.223  53.601  0.00  0.00    +0.000 C 
ATOM      7  C   UNL     1     -45.636-303.072  53.683  0.00  0.00    +0.000 C 
BRANCH   2   8
ATOM      8  C   UNL     1     -45.495-301.299  55.420  0.00  0.00    +0.000 C 
BRANCH   8   9
ATOM      9  C   UNL     1     -45.380-302.273  56.628  0.00  0.00    +0.000 C 
ATOM     10  C   UNL     1     -46.710-302.566  57.295  0.00  0.00    +0.000 C 
BRANCH   9  12
ATOM     11  C   UNL     1     -45.040-302.142  59.080  0.00  0.00    +0.000 C 
ATOM     12  C   UNL     1     -44.385-301.898  57.718  0.00  0.00    +0.000 C 
ENDBRANCH   9  12
ENDBRANCH   8   9
ENDBRANCH   2   8
ENDBRANCH   1   6
BRANCH   1  13
ATOM     13  O   UNL     1     -47.594-305.415  54.878  0.00  0.00    +0.000 OA
BRANCH  13  14
ATOM     14  C   UNL     1     -46.745-306.463  55.191  0.00  0.00    +0.000 C 
ATOM     15  O   UNL     1     -46.766-307.552  54.673  0.00  0.00    +0.000 OA
BRANCH  14  16
ATOM     16  C   UNL     1     -45.690-306.117  56.225  0.00  0.00    +0.000 A 
ATOM     17  C   UNL     1     -46.047-306.156  57.638  0.00  0.00    +0.000 A 
ATOM     18  C   UNL     1     -45.148-305.923  58.613  0.00  0.00    +0.000 A 
ATOM     19  C   UNL     1     -43.824-305.531  58.282  0.00  0.00    +0.000 A 
ATOM     20  N   UNL     1     -42.775-305.208  59.008  0.00  0.00    +0.000 NA
ATOM     21  N   UNL     1     -41.779-304.798  58.149  0.00  0.00    +0.000 NA
ATOM     22  C   UNL     1     -42.244-304.893  56.920  0.00  0.00    +0.000 A 
ATOM     23  N   UNL     1     -43.511-305.425  56.938  0.00  0.00    +0.000 N 
ATOM     24  C   UNL     1     -44.406-305.773  55.915  0.00  0.00    +0.000 A 
ENDBRANCH  14  16
ENDBRANCH  13  14
ENDBRANCH   1  13
TORSDOF 7
ENDMDL
MODEL 7
REMARK VINA RESULT:     0.001      7.110     10.146
REMARK INTER + INTRA:          -1.852
REMARK INTER:                   0.000
REMARK INTRA:                  -1.852
REMARK UNBOUND:                -1.853
REMARK  Name = 
REMARK  9 active torsions:
REMARK  status: ('A' for Active; 'I' for Inactive)
REMARK    1  A    between atoms: C_1  and  C_2
REMARK    2  A    between atoms: C_2  and  C_3
REMARK    3  A    between atoms: C_3  and  C_4
REMARK    4  A    between atoms: C_3  and  C_5
REMARK    5  A    between atoms: C_5  and  N_6
REMARK    6  A    between atoms: C_10  and  C_11
REMARK    7  A    between atoms: C_11  and  O_12
REMARK    8  A    between atoms: O_12  and  C_13
REMARK    9  A    between atoms: C_13  and  C_15
REMARK                            x       y       z     vdW  Elec       q    Type
REMARK                         _______ _______ _______ _____ _____    ______ ____
ROOT
ATOM      1  C   UNL     1     -37.956-302.979  65.101  0.00  0.00    +0.000 C 
ENDROOT
BRANCH   1   6
ATOM      2  N   UNL     1     -38.663-306.060  62.901  0.00  0.00    +0.000 NA
ATOM      3  C   UNL     1     -38.121-307.103  63.791  0.00  0.00    +0.000 C 
ATOM      4  C   UNL     1     -38.418-306.776  65.274  0.00  0.00    +0.000 C 
ATOM      5  O   UNL     1     -37.833-305.495  65.686  0.00  0.00    +0.000 OA
ATOM      6  C   UNL     1     -38.376-304.452  64.845  0.00  0.00    +0.000 C 
ATOM      7  C   UNL     1     -38.055-304.830  63.398  0.00  0.00    +0.000 C 
BRANCH   2   8
ATOM      8  C   UNL     1     -40.148-306.040  62.819  0.00  0.00    +0.000 C 
BRANCH   8   9
ATOM      9  C   UNL     1     -40.891-304.801  62.241  0.00  0.00    +0.000 C 
ATOM     10  C   UNL     1     -41.785-304.110  63.251  0.00  0.00    +0.000 C 
BRANCH   9  12
ATOM     11  C   UNL     1     -43.042-304.293  61.120  0.00  0.00    +0.000 C 
ATOM     12  C   UNL     1     -41.702-305.018  60.971  0.00  0.00    +0.000 C 
ENDBRANCH   9  12
ENDBRANCH   8   9
ENDBRANCH   2   8
ENDBRANCH   1   6
BRANCH   1  13
ATOM     13  O   UNL     1     -38.952-301.947  64.678  0.00  0.00    +0.000 OA
BRANCH  13  14
ATOM     14  C   UNL     1     -38.649-301.015  63.700  0.00  0.00    +0.000 C 
ATOM     15  O   UNL     1     -37.839-300.128  63.813  0.00  0.00    +0.000 OA
BRANCH  14  16
ATOM     16  C   UNL     1     -39.384-301.231  62.391  0.00  0.00    +0.000 A 
ATOM     17  C   UNL     1     -40.749-300.736  62.257  0.00  0.00    +0.000 A 
ATOM     18  C   UNL     1     -41.440-300.835  61.106  0.00  0.00    +0.000 A 
ATOM     19  C   UNL     1     -40.881-301.524  59.996  0.00  0.00    +0.000 A 
ATOM     20  N   UNL     1     -41.333-301.804  58.794  0.00  0.00    +0.000 NA
ATOM     21  N   UNL     1     -40.399-302.602  58.169  0.00  0.00    +0.000 NA
ATOM     22  C   UNL     1     -39.398-302.779  59.006  0.00  0.00    +0.000 A 
ATOM     23  N   UNL     1     -39.613-302.055  60.154  0.00  0.00    +0.000 N 
ATOM     24  C   UNL     1     -38.840-301.861  61.310  0.00  0.00    +0.000 A 
ENDBRANCH  14  16
ENDBRANCH  13  14
ENDBRANCH   1  13
TORSDOF 7
ENDMDL
MODEL 8
REMARK VINA RESULT:     0.001      3.539      4.693
REMARK INTER + INTRA:          -1.852
REMARK INTER:                   0.000
REMARK INTRA:                  -1.852
REMARK UNBOUND:                -1.853
REMARK  Name = 
REMARK  9 active torsions:
REMARK  status: ('A' for Active; 'I' for Inactive)
REMARK    1  A    between atoms: C_1  and  C_2
REMARK    2  A    between atoms: C_2  and  C_3
REMARK    3  A    between atoms: C_3  and  C_4
REMARK    4  A    between atoms: C_3  and  C_5
REMARK    5  A    between atoms: C_5  and  N_6
REMARK    6  A    between atoms: C_10  and  C_11
REMARK    7  A    between atoms: C_11  and  O_12
REMARK    8  A    between atoms: O_12  and  C_13
REMARK    9  A    between atoms: C_13  and  C_15
REMARK                            x       y       z     vdW  Elec       q    Type
REMARK                         _______ _______ _______ _____ _____    ______ ____
ROOT
ATOM      1  C   UNL     1     -43.600-301.704  63.434  0.00  0.00    +0.000 C 
ENDROOT
BRANCH   1   6
ATOM      2  N   UNL     1     -44.787-298.162  62.498  0.00  0.00    +0.000 NA
ATOM      3  C   UNL     1     -46.064-298.148  63.235  0.00  0.00    +0.000 C 
ATOM      4  C   UNL     1     -45.932-298.894  64.585  0.00  0.00    +0.000 C 
ATOM      5  O   UNL     1     -45.539-300.297  64.406  0.00  0.00    +0.000 OA
ATOM      6  C   UNL     1     -44.271-300.332  63.711  0.00  0.00    +0.000 C 
ATOM      7  C   UNL     1     -44.462-299.581  62.392  0.00  0.00    +0.000 C 
BRANCH   2   8
ATOM      8  C   UNL     1     -43.724-297.315  63.103  0.00  0.00    +0.000 C 
BRANCH   8   9
ATOM      9  C   UNL     1     -42.236-297.498  62.686  0.00  0.00    +0.000 C 
ATOM     10  C   UNL     1     -41.342-297.947  63.825  0.00  0.00    +0.000 C 
BRANCH   9  12
ATOM     11  C   UNL     1     -40.162-296.143  62.597  0.00  0.00    +0.000 C 
ATOM     12  C   UNL     1     -41.564-296.313  62.006  0.00  0.00    +0.000 C 
ENDBRANCH   9  12
ENDBRANCH   8   9
ENDBRANCH   2   8
ENDBRANCH   1   6
BRANCH   1  13
ATOM     13  O   UNL     1     -42.110-301.675  63.316  0.00  0.00    +0.000 OA
BRANCH  13  14
ATOM     14  C   UNL     1     -41.474-302.040  62.141  0.00  0.00    +0.000 C 
ATOM     15  O   UNL     1     -41.444-303.157  61.687  0.00  0.00    +0.000 OA
BRANCH  14  16
ATOM     16  C   UNL     1     -40.848-300.881  61.389  0.00  0.00    +0.000 A 
ATOM     17  C   UNL     1     -39.531-300.406  61.795  0.00  0.00    +0.000 A 
ATOM     18  C   UNL     1     -38.887-299.424  61.135  0.00  0.00    +0.000 A 
ATOM     19  C   UNL     1     -39.527-298.746  60.063  0.00  0.00    +0.000 A 
ATOM     20  N   UNL     1     -39.164-297.748  59.288  0.00  0.00    +0.000 NA
ATOM     21  N   UNL     1     -40.238-297.426  58.487  0.00  0.00    +0.000 NA
ATOM     22  C   UNL     1     -41.224-298.244  58.789  0.00  0.00    +0.000 A 
ATOM     23  N   UNL     1     -40.807-299.154  59.730  0.00  0.00    +0.000 N 
ATOM     24  C   UNL     1     -41.444-300.248  60.337  0.00  0.00    +0.000 A 
ENDBRANCH  14  16
ENDBRANCH  13  14
ENDBRANCH   1  13
TORSDOF 7
ENDMDL
MODEL 9
REMARK VINA RESULT:     0.001      9.291     10.982
REMARK INTER + INTRA:          -1.852
REMARK INTER:                   0.000
REMARK INTRA:                  -1.852
REMARK UNBOUND:                -1.853
REMARK  Name = 
REMARK  9 active torsions:
REMARK  status: ('A' for Active; 'I' for Inactive)
REMARK    1  A    between atoms: C_1  and  C_2
REMARK    2  A    between atoms: C_2  and  C_3
REMARK    3  A    between atoms: C_3  and  C_4
REMARK    4  A    between atoms: C_3  and  C_5
REMARK    5  A    between atoms: C_5  and  N_6
REMARK    6  A    between atoms: C_10  and  C_11
REMARK    7  A    between atoms: C_11  and  O_12
REMARK    8  A    between atoms: O_12  and  C_13
REMARK    9  A    between atoms: C_13  and  C_15
REMARK                            x       y       z     vdW  Elec       q    Type
REMARK                         _______ _______ _______ _____ _____    ______ ____
ROOT
ATOM      1  C   UNL     1     -43.720-305.802  62.387  0.00  0.00    +0.000 C 
ENDROOT
BRANCH   1   6
ATOM      2  N   UNL     1     -41.417-305.274  59.346  0.00  0.00    +0.000 NA
ATOM      3  C   UNL     1     -42.449-305.043  58.318  0.00  0.00    +0.000 C 
ATOM      4  C   UNL     1     -43.635-304.234  58.895  0.00  0.00    +0.000 C 
ATOM      5  O   UNL     1     -44.278-304.923  60.021  0.00  0.00    +0.000 OA
ATOM      6  C   UNL     1     -43.290-305.131  61.055  0.00  0.00    +0.000 C 
ATOM      7  C   UNL     1     -42.146-305.929  60.428  0.00  0.00    +0.000 C 
BRANCH   2   8
ATOM      8  C   UNL     1     -40.667-304.052  59.741  0.00  0.00    +0.000 C 
BRANCH   8   9
ATOM      9  C   UNL     1     -39.822-304.033  61.048  0.00  0.00    +0.000 C 
ATOM     10  C   UNL     1     -40.318-303.030  62.071  0.00  0.00    +0.000 C 
BRANCH   9  12
ATOM     11  C   UNL     1     -37.847-302.839  61.953  0.00  0.00    +0.000 C 
ATOM     12  C   UNL     1     -38.320-303.835  60.891  0.00  0.00    +0.000 C 
ENDBRANCH   9  12
ENDBRANCH   8   9
ENDBRANCH   2   8
ENDBRANCH   1   6
BRANCH   1  13
ATOM     13  O   UNL     1     -42.891-305.447  63.580  0.00  0.00    +0.000 OA
BRANCH  13  14
ATOM     14  C   UNL     1     -42.164-306.408  64.261  0.00  0.00    +0.000 C 
ATOM     15  O   UNL     1     -42.640-307.311  64.905  0.00  0.00    +0.000 OA
BRANCH  14  16
ATOM     16  C   UNL     1     -40.662-306.290  64.084  0.00  0.00    +0.000 A 
ATOM     17  C   UNL     1     -39.928-305.330  64.899  0.00  0.00    +0.000 A 
ATOM     18  C   UNL     1     -38.588-305.214  64.842  0.00  0.00    +0.000 A 
ATOM     19  C   UNL     1     -37.847-305.973  63.897  0.00  0.00    +0.000 A 
ATOM     20  N   UNL     1     -36.568-306.032  63.597  0.00  0.00    +0.000 NA
ATOM     21  N   UNL     1     -36.429-306.867  62.510  0.00  0.00    +0.000 NA
ATOM     22  C   UNL     1     -37.627-307.304  62.183  0.00  0.00    +0.000 A 
ATOM     23  N   UNL     1     -38.558-306.831  63.075  0.00  0.00    +0.000 N 
ATOM     24  C   UNL     1     -39.940-307.041  63.203  0.00  0.00    +0.000 A 
ENDBRANCH  14  16
ENDBRANCH  13  14
ENDBRANCH   1  13
TORSDOF 7
ENDMDL
MODEL 10
REMARK VINA RESULT:     0.001      8.003     10.619
REMARK INTER + INTRA:          -1.852
REMARK INTER:                   0.000
REMARK INTRA:                  -1.852
REMARK UNBOUND:                -1.853
REMARK  Name = 
REMARK  9 active torsions:
REMARK  status: ('A' for Active; 'I' for Inactive)
REMARK    1  A    between atoms: C_1  and  C_2
REMARK    2  A    between atoms: C_2  and  C_3
REMARK    3  A    between atoms: C_3  and  C_4
REMARK    4  A    between atoms: C_3  and  C_5
REMARK    5  A    between atoms: C_5  and  N_6
REMARK    6  A    between atoms: C_10  and  C_11
REMARK    7  A    between atoms: C_11  and  O_12
REMARK    8  A    between atoms: O_12  and  C_13
REMARK    9  A    between atoms: C_13  and  C_15
REMARK                            x       y       z     vdW  Elec       q    Type
REMARK                         _______ _______ _______ _____ _____    ______ ____
ROOT
ATOM      1  C   UNL     1     -46.277-303.586  58.094  0.00  0.00    +0.000 C 
ENDROOT
BRANCH   1   6
ATOM      2  N   UNL     1     -43.502-304.259  55.510  0.00  0.00    +0.000 NA
ATOM      3  C   UNL     1     -43.547-305.733  55.508  0.00  0.00    +0.000 C 
ATOM      4  C   UNL     1     -45.001-306.244  55.651  0.00  0.00    +0.000 C 
ATOM      5  O   UNL     1     -45.629-305.783  56.895  0.00  0.00    +0.000 OA
ATOM      6  C   UNL     1     -45.624-304.337  56.903  0.00  0.00    +0.000 C 
ATOM      7  C   UNL     1     -44.167-303.894  56.757  0.00  0.00    +0.000 C 
BRANCH   2   8
ATOM      8  C   UNL     1     -44.067-303.631  54.287  0.00  0.00    +0.000 C 
BRANCH   8   9
ATOM      9  C   UNL     1     -44.441-302.120  54.275  0.00  0.00    +0.000 C 
ATOM     10  C   UNL     1     -45.920-301.867  54.059  0.00  0.00    +0.000 C 
BRANCH   9  12
ATOM     11  C   UNL     1     -44.659-300.285  52.623  0.00  0.00    +0.000 C 
ATOM     12  C   UNL     1     -43.669-301.230  53.310  0.00  0.00    +0.000 C 
ENDBRANCH   9  12
ENDBRANCH   8   9
ENDBRANCH   2   8
ENDBRANCH   1   6
BRANCH   1  13
ATOM     13  O   UNL     1     -46.797-302.220  57.781  0.00  0.00    +0.000 OA
BRANCH  13  14
ATOM     14  C   UNL     1     -46.284-301.096  58.405  0.00  0.00    +0.000 C 
ATOM     15  O   UNL     1     -46.414-300.830  59.575  0.00  0.00    +0.000 OA
BRANCH  14  16
ATOM     16  C   UNL     1     -45.449-300.211  57.498  0.00  0.00    +0.000 A 
ATOM     17  C   UNL     1     -46.123-299.257  56.626  0.00  0.00    +0.000 A 
ATOM     18  C   UNL     1     -45.446-298.397  55.842  0.00  0.00    +0.000 A 
ATOM     19  C   UNL     1     -44.029-298.463  55.770  0.00  0.00    +0.000 A 
ATOM     20  N   UNL     1     -43.133-297.795  55.076  0.00  0.00    +0.000 NA
ATOM     21  N   UNL     1     -41.903-298.363  55.321  0.00  0.00    +0.000 NA
ATOM     22  C   UNL     1     -42.080-299.357  56.166  0.00  0.00    +0.000 A 
ATOM     23  N   UNL     1     -43.399-299.420  56.546  0.00  0.00    +0.000 N 
ATOM     24  C   UNL     1     -44.085-300.246  57.450  0.00  0.00    +0.000 A 
ENDBRANCH  14  16
ENDBRANCH  13  14
ENDBRANCH   1  13
TORSDOF 7
ENDMDL
