MODEL 1
REMARK VINA RESULT:     0.000      0.000      0.000
REMARK INTER + INTRA:          -0.480
REMARK INTER:                   0.000
REMARK INTRA:                  -0.480
REMARK UNBOUND:                -0.480
REMARK  Name = 
REMARK  5 active torsions:
REMARK  status: ('A' for Active; 'I' for Inactive)
REMARK    1  A    between atoms: C_1  and  C_2
REMARK    2  A    between atoms: C_2  and  C_3
REMARK    3  A    between atoms: C_5  and  C_6
REMARK    4  A    between atoms: C_9  and  C_10
REMARK    5  A    between atoms: C_10  and  N_11
REMARK                            x       y       z     vdW  Elec       q    Type
REMARK                         _______ _______ _______ _____ _____    ______ ____
ROOT
ATOM      1  C   UNL     1     -38.449-303.069  60.079  0.00  0.00    +0.000 A 
ATOM      2  C   UNL     1     -38.554-304.104  61.023  0.00  0.00    +0.000 A 
ATOM      3  C   UNL     1     -39.732-304.843  61.186  0.00  0.00    +0.000 A 
ATOM      4  C   UNL     1     -39.786-305.928  62.220  0.00  0.00    +0.000 C 
ATOM      5  C   UNL     1     -40.824-304.567  60.362  0.00  0.00    +0.000 A 
ATOM      6  N   UNL     1     -42.011-305.317  60.438  0.00  0.00    +0.000 N 
ATOM      7  C   UNL     1     -43.059-305.117  59.558  0.00  0.00    +0.000 A 
ATOM      8  C   UNL     1     -42.872-304.431  58.408  0.00  0.00    +0.000 A 
ATOM      9  C   UNL     1     -41.776-303.413  58.413  0.00  0.00    +0.000 A 
ATOM     10  O   UNL     1     -41.870-302.394  57.713  0.00  0.00    +0.000 OA
ATOM     11  C   UNL     1     -40.684-303.577  59.375  0.00  0.00    +0.000 A 
ATOM     12  C   UNL     1     -39.540-302.784  59.265  0.00  0.00    +0.000 A 
ATOM     13  H   UNL     1     -42.198-305.823  61.295  0.00  0.00    +0.000 HD
ENDROOT
BRANCH   1  15
ATOM     14  C   UNL     1     -36.101-302.810  60.905  0.00  0.00    +0.000 C 
ATOM     15  C   UNL     1     -37.165-302.296  59.945  0.00  0.00    +0.000 C 
ENDBRANCH   1  15
BRANCH   7  16
ATOM     16  C   UNL     1     -44.465-305.575  59.999  0.00  0.00    +0.000 C 
BRANCH  16  17
ATOM     17  N   UNL     1     -45.493-304.571  60.394  0.00  0.00    +0.000 NA
ATOM     18  C   UNL     1     -45.005-303.516  61.312  0.00  0.00    +0.000 C 
ATOM     19  C   UNL     1     -44.981-303.982  62.779  0.00  0.00    +0.000 C 
ATOM     20  O   UNL     1     -46.227-304.511  63.242  0.00  0.00    +0.000 OA
ATOM     21  C   UNL     1     -46.603-305.619  62.400  0.00  0.00    +0.000 C 
ATOM     22  C   UNL     1     -46.748-305.120  60.959  0.00  0.00    +0.000 C 
ENDBRANCH  16  17
ENDBRANCH   7  16
TORSDOF 3
ENDMDL
MODEL 2
REMARK VINA RESULT:     0.000      8.650     11.340
REMARK INTER + INTRA:          -0.480
REMARK INTER:                   0.000
REMARK INTRA:                  -0.480
REMARK UNBOUND:                -0.480
REMARK  Name = 
REMARK  5 active torsions:
REMARK  status: ('A' for Active; 'I' for Inactive)
REMARK    1  A    between atoms: C_1  and  C_2
REMARK    2  A    between atoms: C_2  and  C_3
REMARK    3  A    between atoms: C_5  and  C_6
REMARK    4  A    between atoms: C_9  and  C_10
REMARK    5  A    between atoms: C_10  and  N_11
REMARK                            x       y       z     vdW  Elec       q    Type
REMARK                         _______ _______ _______ _____ _____    ______ ____
ROOT
ATOM      1  C   UNL     1     -47.643-301.955  55.736  0.00  0.00    +0.000 A 
ATOM      2  C   UNL     1     -48.812-301.233  55.445  0.00  0.00    +0.000 A 
ATOM      3  C   UNL     1     -48.799-300.095  54.629  0.00  0.00    +0.000 A 
ATOM      4  C   UNL     1     -50.079-299.360  54.365  0.00  0.00    +0.000 C 
ATOM      5  C   UNL     1     -47.593-299.686  54.059  0.00  0.00    +0.000 A 
ATOM      6  N   UNL     1     -47.529-298.588  53.182  0.00  0.00    +0.000 N 
ATOM      7  C   UNL     1     -46.358-298.237  52.534  0.00  0.00    +0.000 A 
ATOM      8  C   UNL     1     -45.323-299.105  52.463  0.00  0.00    +0.000 A 
ATOM      9  C   UNL     1     -45.223-300.110  53.566  0.00  0.00    +0.000 A 
ATOM     10  O   UNL     1     -44.114-300.530  53.927  0.00  0.00    +0.000 OA
ATOM     11  C   UNL     1     -46.442-300.455  54.301  0.00  0.00    +0.000 A 
ATOM     12  C   UNL     1     -46.438-301.541  55.179  0.00  0.00    +0.000 A 
ATOM     13  H   UNL     1     -48.273-297.902  53.226  0.00  0.00    +0.000 HD
ENDROOT
BRANCH   1  15
ATOM     14  C   UNL     1     -49.129-303.455  57.078  0.00  0.00    +0.000 C 
ATOM     15  C   UNL     1     -47.704-303.167  56.624  0.00  0.00    +0.000 C 
ENDBRANCH   1  15
BRANCH   7  16
ATOM     16  C   UNL     1     -46.224-296.786  52.028  0.00  0.00    +0.000 C 
BRANCH  16  17
ATOM     17  N   UNL     1     -45.329-295.823  52.730  0.00  0.00    +0.000 NA
ATOM     18  C   UNL     1     -45.460-295.823  54.205  0.00  0.00    +0.000 C 
ATOM     19  C   UNL     1     -46.652-294.975  54.687  0.00  0.00    +0.000 C 
ATOM     20  O   UNL     1     -46.653-293.636  54.183  0.00  0.00    +0.000 OA
ATOM     21  C   UNL     1     -46.657-293.681  52.743  0.00  0.00    +0.000 C 
ATOM     22  C   UNL     1     -45.400-294.418  52.267  0.00  0.00    +0.000 C 
ENDBRANCH  16  17
ENDBRANCH   7  16
TORSDOF 3
ENDMDL
MODEL 3
REMARK VINA RESULT:     0.000      5.263      6.963
REMARK INTER + INTRA:          -0.480
REMARK INTER:                   0.000
REMARK INTRA:                  -0.480
REMARK UNBOUND:                -0.480
REMARK  Name = 
REMARK  5 active torsions:
REMARK  status: ('A' for Active; 'I' for Inactive)
REMARK    1  A    between atoms: C_1  and  C_2
REMARK    2  A    between atoms: C_2  and  C_3
REMARK    3  A    between atoms: C_5  and  C_6
REMARK    4  A    between atoms: C_9  and  C_10
REMARK    5  A    between atoms: C_10  and  N_11
REMARK                            x       y       z     vdW  Elec       q    Type
REMARK                         _______ _______ _______ _____ _____    ______ ____
ROOT
ATOM      1  C   UNL     1     -38.639-303.786  67.384  0.00  0.00    +0.000 A 
ATOM      2  C   UNL     1     -38.711-304.009  65.999  0.00  0.00    +0.000 A 
ATOM      3  C   UNL     1     -39.895-304.418  65.374  0.00  0.00    +0.000 A 
ATOM      4  C   UNL     1     -39.905-304.652  63.893  0.00  0.00    +0.000 C 
ATOM      5  C   UNL     1     -41.048-304.574  66.144  0.00  0.00    +0.000 A 
ATOM      6  N   UNL     1     -42.280-304.922  65.562  0.00  0.00    +0.000 N 
ATOM      7  C   UNL     1     -43.447-304.981  66.301  0.00  0.00    +0.000 A 
ATOM      8  C   UNL     1     -43.519-304.405  67.523  0.00  0.00    +0.000 A 
ATOM      9  C   UNL     1     -42.233-304.289  68.278  0.00  0.00    +0.000 A 
ATOM     10  O   UNL     1     -42.231-304.336  69.517  0.00  0.00    +0.000 OA
ATOM     11  C   UNL     1     -40.981-304.281  67.517  0.00  0.00    +0.000 A 
ATOM     12  C   UNL     1     -39.784-303.953  68.156  0.00  0.00    +0.000 A 
ATOM     13  H   UNL     1     -42.265-305.380  64.659  0.00  0.00    +0.000 HD
ENDROOT
BRANCH   1  15
ATOM     14  C   UNL     1     -36.242-303.195  66.974  0.00  0.00    +0.000 C 
ATOM     15  C   UNL     1     -37.342-303.355  68.014  0.00  0.00    +0.000 C 
ENDBRANCH   1  15
BRANCH   7  16
ATOM     16  C   UNL     1     -44.605-305.838  65.751  0.00  0.00    +0.000 C 
BRANCH  16  17
ATOM     17  N   UNL     1     -44.938-307.147  66.381  0.00  0.00    +0.000 NA
ATOM     18  C   UNL     1     -43.768-308.013  66.659  0.00  0.00    +0.000 C 
ATOM     19  C   UNL     1     -43.310-308.796  65.415  0.00  0.00    +0.000 C 
ATOM     20  O   UNL     1     -44.351-309.547  64.786  0.00  0.00    +0.000 OA
ATOM     21  C   UNL     1     -45.415-308.648  64.413  0.00  0.00    +0.000 C 
ATOM     22  C   UNL     1     -45.952-307.965  65.676  0.00  0.00    +0.000 C 
ENDBRANCH  16  17
ENDBRANCH   7  16
TORSDOF 3
ENDMDL
MODEL 4
REMARK VINA RESULT:     0.000      8.386     10.050
REMARK INTER + INTRA:          -0.480
REMARK INTER:                   0.000
REMARK INTRA:                  -0.480
REMARK UNBOUND:                -0.480
REMARK  Name = 
REMARK  5 active torsions:
REMARK  status: ('A' for Active; 'I' for Inactive)
REMARK    1  A    between atoms: C_1  and  C_2
REMARK    2  A    between atoms: C_2  and  C_3
REMARK    3  A    between atoms: C_5  and  C_6
REMARK    4  A    between atoms: C_9  and  C_10
REMARK    5  A    between atoms: C_10  and  N_11
REMARK                            x       y       z     vdW  Elec       q    Type
REMARK                         _______ _______ _______ _____ _____    ______ ____
ROOT
ATOM      1  C   UNL     1     -42.794-299.760  65.916  0.00  0.00    +0.000 A 
ATOM      2  C   UNL     1     -41.853-299.657  64.878  0.00  0.00    +0.000 A 
ATOM      3  C   UNL     1     -41.653-298.463  64.175  0.00  0.00    +0.000 A 
ATOM      4  C   UNL     1     -40.643-298.418  63.067  0.00  0.00    +0.000 C 
ATOM      5  C   UNL     1     -42.384-297.332  64.540  0.00  0.00    +0.000 A 
ATOM      6  N   UNL     1     -42.181-296.090  63.911  0.00  0.00    +0.000 N 
ATOM      7  C   UNL     1     -42.827-294.942  64.334  0.00  0.00    +0.000 A 
ATOM      8  C   UNL     1     -43.424-294.894  65.546  0.00  0.00    +0.000 A 
ATOM      9  C   UNL     1     -43.906-296.197  66.101  0.00  0.00    +0.000 A 
ATOM     10  O   UNL     1     -44.902-296.231  66.837  0.00  0.00    +0.000 OA
ATOM     11  C   UNL     1     -43.271-297.429  65.625  0.00  0.00    +0.000 A 
ATOM     12  C   UNL     1     -43.532-298.638  66.274  0.00  0.00    +0.000 A 
ATOM     13  H   UNL     1     -41.761-296.089  62.990  0.00  0.00    +0.000 HD
ENDROOT
BRANCH   1  15
ATOM     14  C   UNL     1     -42.038-302.139  66.108  0.00  0.00    +0.000 C 
ATOM     15  C   UNL     1     -42.981-301.067  66.638  0.00  0.00    +0.000 C 
ENDBRANCH   1  15
BRANCH   7  16
ATOM     16  C   UNL     1     -42.964-293.783  63.326  0.00  0.00    +0.000 C 
BRANCH  16  17
ATOM     17  N   UNL     1     -44.283-293.483  62.699  0.00  0.00    +0.000 NA
ATOM     18  C   UNL     1     -45.007-294.670  62.190  0.00  0.00    +0.000 C 
ATOM     19  C   UNL     1     -44.512-295.107  60.799  0.00  0.00    +0.000 C 
ATOM     20  O   UNL     1     -44.518-294.060  59.825  0.00  0.00    +0.000 OA
ATOM     21  C   UNL     1     -43.696-292.976  60.301  0.00  0.00    +0.000 C 
ATOM     22  C   UNL     1     -44.270-292.462  61.625  0.00  0.00    +0.000 C 
ENDBRANCH  16  17
ENDBRANCH   7  16
TORSDOF 3
ENDMDL
MODEL 5
REMARK VINA RESULT:     0.000      7.657     10.680
REMARK INTER + INTRA:          -0.480
REMARK INTER:                   0.000
REMARK INTRA:                  -0.480
REMARK UNBOUND:                -0.480
REMARK  Name = 
REMARK  5 active torsions:
REMARK  status: ('A' for Active; 'I' for Inactive)
REMARK    1  A    between atoms: C_1  and  C_2
REMARK    2  A    between atoms: C_2  and  C_3
REMARK    3  A    between atoms: C_5  and  C_6
REMARK    4  A    between atoms: C_9  and  C_10
REMARK    5  A    between atoms: C_10  and  N_11
REMARK                            x       y       z     vdW  Elec       q    Type
REMARK                         _______ _______ _______ _____ _____    ______ ____
ROOT
ATOM      1  C   UNL     1     -50.861-296.686  62.082  0.00  0.00    +0.000 A 
ATOM      2  C   UNL     1     -51.515-297.915  61.893  0.00  0.00    +0.000 A 
ATOM      3  C   UNL     1     -50.917-298.973  61.197  0.00  0.00    +0.000 A 
ATOM      4  C   UNL     1     -51.671-300.257  61.016  0.00  0.00    +0.000 C 
ATOM      5  C   UNL     1     -49.620-298.815  60.707  0.00  0.00    +0.000 A 
ATOM      6  N   UNL     1     -48.947-299.864  60.055  0.00  0.00    +0.000 N 
ATOM      7  C   UNL     1     -47.628-299.749  59.656  0.00  0.00    +0.000 A 
ATOM      8  C   UNL     1     -46.841-298.766  60.151  0.00  0.00    +0.000 A 
ATOM      9  C   UNL     1     -47.538-297.517  60.589  0.00  0.00    +0.000 A 
ATOM     10  O   UNL     1     -46.963-296.421  60.504  0.00  0.00    +0.000 OA
ATOM     11  C   UNL     1     -48.951-297.606  60.963  0.00  0.00    +0.000 A 
ATOM     12  C   UNL     1     -49.573-296.522  61.585  0.00  0.00    +0.000 A 
ATOM     13  H   UNL     1     -49.506-300.604  59.648  0.00  0.00    +0.000 HD
ENDROOT
BRANCH   1  15
ATOM     14  C   UNL     1     -52.925-295.995  63.317  0.00  0.00    +0.000 C 
ATOM     15  C   UNL     1     -51.545-295.574  62.830  0.00  0.00    +0.000 C 
ENDBRANCH   1  15
BRANCH   7  16
ATOM     16  C   UNL     1     -47.132-300.683  58.533  0.00  0.00    +0.000 C 
BRANCH  16  17
ATOM     17  N   UNL     1     -46.887-300.149  57.164  0.00  0.00    +0.000 NA
ATOM     18  C   UNL     1     -47.961-299.273  56.642  0.00  0.00    +0.000 C 
ATOM     19  C   UNL     1     -49.137-300.074  56.054  0.00  0.00    +0.000 C 
ATOM     20  O   UNL     1     -48.750-301.035  55.067  0.00  0.00    +0.000 OA
ATOM     21  C   UNL     1     -47.801-301.948  55.653  0.00  0.00    +0.000 C 
ATOM     22  C   UNL     1     -46.576-301.157  56.123  0.00  0.00    +0.000 C 
ENDBRANCH  16  17
ENDBRANCH   7  16
TORSDOF 3
ENDMDL
MODEL 6
REMARK VINA RESULT:     0.000      7.197      9.878
REMARK INTER + INTRA:          -0.480
REMARK INTER:                   0.000
REMARK INTRA:                  -0.480
REMARK UNBOUND:                -0.480
REMARK  Name = 
REMARK  5 active torsions:
REMARK  status: ('A' for Active; 'I' for Inactive)
REMARK    1  A    between atoms: C_1  and  C_2
REMARK    2  A    between atoms: C_2  and  C_3
REMARK    3  A    between atoms: C_5  and  C_6
REMARK    4  A    between atoms: C_9  and  C_10
REMARK    5  A    between atoms: C_10  and  N_11
REMARK                            x       y       z     vdW  Elec       q    Type
REMARK                         _______ _______ _______ _____ _____    ______ ____
ROOT
ATOM      1  C   UNL     1     -45.424-296.451  64.791  0.00  0.00    +0.000 A 
ATOM      2  C   UNL     1     -45.650-295.303  64.012  0.00  0.00    +0.000 A 
ATOM      3  C   UNL     1     -45.408-295.284  62.633  0.00  0.00    +0.000 A 
ATOM      4  C   UNL     1     -45.656-294.024  61.858  0.00  0.00    +0.000 C 
ATOM      5  C   UNL     1     -44.962-296.448  62.007  0.00  0.00    +0.000 A 
ATOM      6  N   UNL     1     -44.762-296.506  60.616  0.00  0.00    +0.000 N 
ATOM      7  C   UNL     1     -44.418-297.682  59.975  0.00  0.00    +0.000 A 
ATOM      8  C   UNL     1     -44.572-298.874  60.594  0.00  0.00    +0.000 A 
ATOM      9  C   UNL     1     -44.500-298.860  62.088  0.00  0.00    +0.000 A 
ATOM     10  O   UNL     1     -44.062-299.845  62.700  0.00  0.00    +0.000 OA
ATOM     11  C   UNL     1     -44.807-297.609  62.784  0.00  0.00    +0.000 A 
ATOM     12  C   UNL     1     -44.969-297.609  64.171  0.00  0.00    +0.000 A 
ATOM     13  H   UNL     1     -44.616-295.633  60.122  0.00  0.00    +0.000 HD
ENDROOT
BRANCH   1  15
ATOM     14  C   UNL     1     -46.223-295.068  66.718  0.00  0.00    +0.000 C 
ATOM     15  C   UNL     1     -45.691-296.423  66.271  0.00  0.00    +0.000 C 
ENDBRANCH   1  15
BRANCH   7  16
ATOM     16  C   UNL     1     -43.728-297.576  58.599  0.00  0.00    +0.000 C 
BRANCH  16  17
ATOM     17  N   UNL     1     -42.273-297.868  58.463  0.00  0.00    +0.000 NA
ATOM     18  C   UNL     1     -41.418-297.240  59.496  0.00  0.00    +0.000 C 
ATOM     19  C   UNL     1     -41.093-295.770  59.172  0.00  0.00    +0.000 C 
ATOM     20  O   UNL     1     -40.534-295.572  57.870  0.00  0.00    +0.000 OA
ATOM     21  C   UNL     1     -41.455-296.081  56.886  0.00  0.00    +0.000 C 
ATOM     22  C   UNL     1     -41.677-297.576  57.139  0.00  0.00    +0.000 C 
ENDBRANCH  16  17
ENDBRANCH   7  16
TORSDOF 3
ENDMDL
MODEL 7
REMARK VINA RESULT:     0.000      7.177      8.564
REMARK INTER + INTRA:          -0.480
REMARK INTER:                   0.000
REMARK INTRA:                  -0.480
REMARK UNBOUND:                -0.480
REMARK  Name = 
REMARK  5 active torsions:
REMARK  status: ('A' for Active; 'I' for Inactive)
REMARK    1  A    between atoms: C_1  and  C_2
REMARK    2  A    between atoms: C_2  and  C_3
REMARK    3  A    between atoms: C_5  and  C_6
REMARK    4  A    between atoms: C_9  and  C_10
REMARK    5  A    between atoms: C_10  and  N_11
REMARK                            x       y       z     vdW  Elec       q    Type
REMARK                         _______ _______ _______ _____ _____    ______ ____
ROOT
ATOM      1  C   UNL     1     -47.805-302.586  55.652  0.00  0.00    +0.000 A 
ATOM      2  C   UNL     1     -47.200-301.796  56.645  0.00  0.00    +0.000 A 
ATOM      3  C   UNL     1     -47.551-301.907  57.996  0.00  0.00    +0.000 A 
ATOM      4  C   UNL     1     -46.878-301.028  59.008  0.00  0.00    +0.000 C 
ATOM      5  C   UNL     1     -48.504-302.854  58.373  0.00  0.00    +0.000 A 
ATOM      6  N   UNL     1     -48.850-303.053  59.721  0.00  0.00    +0.000 N 
ATOM      7  C   UNL     1     -49.717-304.057  60.113  0.00  0.00    +0.000 A 
ATOM      8  C   UNL     1     -50.015-305.076  59.275  0.00  0.00    +0.000 A 
ATOM      9  C   UNL     1     -49.922-304.781  57.812  0.00  0.00    +0.000 A 
ATOM     10  O   UNL     1     -50.668-305.363  57.010  0.00  0.00    +0.000 OA
ATOM     11  C   UNL     1     -49.051-303.686  57.380  0.00  0.00    +0.000 A 
ATOM     12  C   UNL     1     -48.764-303.522  56.024  0.00  0.00    +0.000 A 
ATOM     13  H   UNL     1     -48.667-302.300  60.373  0.00  0.00    +0.000 HD
ENDROOT
BRANCH   1  15
ATOM     14  C   UNL     1     -46.311-301.377  54.049  0.00  0.00    +0.000 C 
ATOM     15  C   UNL     1     -47.402-302.426  54.211  0.00  0.00    +0.000 C 
ENDBRANCH   1  15
BRANCH   7  16
ATOM     16  C   UNL     1     -50.435-303.898  61.469  0.00  0.00    +0.000 C 
BRANCH  16  17
ATOM     17  N   UNL     1     -51.885-303.554  61.517  0.00  0.00    +0.000 NA
ATOM     18  C   UNL     1     -52.288-302.454  60.611  0.00  0.00    +0.000 C 
ATOM     19  C   UNL     1     -52.000-301.066  61.210  0.00  0.00    +0.000 C 
ATOM     20  O   UNL     1     -52.554-300.870  62.514  0.00  0.00    +0.000 OA
ATOM     21  C   UNL     1     -52.035-301.883  63.398  0.00  0.00    +0.000 C 
ATOM     22  C   UNL     1     -52.435-303.262  62.861  0.00  0.00    +0.000 C 
ENDBRANCH  16  17
ENDBRANCH   7  16
TORSDOF 3
ENDMDL
MODEL 8
REMARK VINA RESULT:     0.000      5.443      9.892
REMARK INTER + INTRA:          -0.480
REMARK INTER:                   0.000
REMARK INTRA:                  -0.480
REMARK UNBOUND:                -0.480
REMARK  Name = 
REMARK  5 active torsions:
REMARK  status: ('A' for Active; 'I' for Inactive)
REMARK    1  A    between atoms: C_1  and  C_2
REMARK    2  A    between atoms: C_2  and  C_3
REMARK    3  A    between atoms: C_5  and  C_6
REMARK    4  A    between atoms: C_9  and  C_10
REMARK    5  A    between atoms: C_10  and  N_11
REMARK                            x       y       z     vdW  Elec       q    Type
REMARK                         _______ _______ _______ _____ _____    ______ ____
ROOT
ATOM      1  C   UNL     1     -51.996-303.756  59.713  0.00  0.00    +0.000 A 
ATOM      2  C   UNL     1     -51.594-302.592  59.038  0.00  0.00    +0.000 A 
ATOM      3  C   UNL     1     -50.560-302.601  58.093  0.00  0.00    +0.000 A 
ATOM      4  C   UNL     1     -50.169-301.323  57.414  0.00  0.00    +0.000 C 
ATOM      5  C   UNL     1     -49.933-303.810  57.788  0.00  0.00    +0.000 A 
ATOM      6  N   UNL     1     -48.932-303.891  56.804  0.00  0.00    +0.000 N 
ATOM      7  C   UNL     1     -48.377-305.099  56.424  0.00  0.00    +0.000 A 
ATOM      8  C   UNL     1     -48.983-306.266  56.741  0.00  0.00    +0.000 A 
ATOM      9  C   UNL     1     -49.837-306.258  57.969  0.00  0.00    +0.000 A 
ATOM     10  O   UNL     1     -49.954-307.286  58.652  0.00  0.00    +0.000 OA
ATOM     11  C   UNL     1     -50.390-304.980  58.420  0.00  0.00    +0.000 A 
ATOM     12  C   UNL     1     -51.364-304.960  59.420  0.00  0.00    +0.000 A 
ATOM     13  H   UNL     1     -48.437-303.042  56.560  0.00  0.00    +0.000 HD
ENDROOT
BRANCH   1  15
ATOM     14  C   UNL     1     -53.673-302.289  60.853  0.00  0.00    +0.000 C 
ATOM     15  C   UNL     1     -53.106-303.697  60.727  0.00  0.00    +0.000 C 
ENDBRANCH   1  15
BRANCH   7  16
ATOM     16  C   UNL     1     -46.985-305.074  55.760  0.00  0.00    +0.000 C 
BRANCH  16  17
ATOM     17  N   UNL     1     -45.783-305.529  56.514  0.00  0.00    +0.000 NA
ATOM     18  C   UNL     1     -45.683-305.000  57.894  0.00  0.00    +0.000 C 
ATOM     19  C   UNL     1     -45.096-303.577  57.934  0.00  0.00    +0.000 C 
ATOM     20  O   UNL     1     -43.844-303.445  57.255  0.00  0.00    +0.000 OA
ATOM     21  C   UNL     1     -44.015-303.847  55.882  0.00  0.00    +0.000 C 
ATOM     22  C   UNL     1     -44.479-305.308  55.846  0.00  0.00    +0.000 C 
ENDBRANCH  16  17
ENDBRANCH   7  16
TORSDOF 3
ENDMDL
MODEL 9
REMARK VINA RESULT:     0.000      8.160     11.241
REMARK INTER + INTRA:          -0.480
REMARK INTER:                   0.000
REMARK INTRA:                  -0.480
REMARK UNBOUND:                -0.480
REMARK  Name = 
REMARK  5 active torsions:
REMARK  status: ('A' for Active; 'I' for Inactive)
REMARK    1  A    between atoms: C_1  and  C_2
REMARK    2  A    between atoms: C_2  and  C_3
REMARK    3  A    between atoms: C_5  and  C_6
REMARK    4  A    between atoms: C_9  and  C_10
REMARK    5  A    between atoms: C_10  and  N_11
REMARK                            x       y       z     vdW  Elec       q    Type
REMARK                         _______ _______ _______ _____ _____    ______ ____
ROOT
ATOM      1  C   UNL     1     -49.640-294.566  59.565  0.00  0.00    +0.000 A 
ATOM      2  C   UNL     1     -49.498-295.214  58.327  0.00  0.00    +0.000 A 
ATOM      3  C   UNL     1     -48.472-296.137  58.086  0.00  0.00    +0.000 A 
ATOM      4  C   UNL     1     -48.364-296.787  56.739  0.00  0.00    +0.000 C 
ATOM      5  C   UNL     1     -47.586-296.449  59.118  0.00  0.00    +0.000 A 
ATOM      6  N   UNL     1     -46.576-297.413  58.954  0.00  0.00    +0.000 N 
ATOM      7  C   UNL     1     -45.758-297.800  60.001  0.00  0.00    +0.000 A 
ATOM      8  C   UNL     1     -46.094-297.515  61.279  0.00  0.00    +0.000 A 
ATOM      9  C   UNL     1     -46.948-296.306  61.487  0.00  0.00    +0.000 A 
ATOM     10  O   UNL     1     -46.845-295.641  62.529  0.00  0.00    +0.000 OA
ATOM     11  C   UNL     1     -47.781-295.846  60.373  0.00  0.00    +0.000 A 
ATOM     12  C   UNL     1     -48.751-294.866  60.591  0.00  0.00    +0.000 A 
ATOM     13  H   UNL     1     -46.279-297.632  58.011  0.00  0.00    +0.000 HD
ENDROOT
BRANCH   1  15
ATOM     14  C   UNL     1     -51.627-293.446  58.535  0.00  0.00    +0.000 C 
ATOM     15  C   UNL     1     -50.753-293.576  59.775  0.00  0.00    +0.000 C 
ENDBRANCH   1  15
BRANCH   7  16
ATOM     16  C   UNL     1     -44.396-298.435  59.652  0.00  0.00    +0.000 C 
BRANCH  16  17
ATOM     17  N   UNL     1     -43.136-297.663  59.843  0.00  0.00    +0.000 NA
ATOM     18  C   UNL     1     -43.180-296.273  59.332  0.00  0.00    +0.000 C 
ATOM     19  C   UNL     1     -42.927-296.199  57.815  0.00  0.00    +0.000 C 
ATOM     20  O   UNL     1     -41.724-296.849  57.394  0.00  0.00    +0.000 OA
ATOM     21  C   UNL     1     -41.778-298.232  57.797  0.00  0.00    +0.000 C 
ATOM     22  C   UNL     1     -41.903-298.299  59.323  0.00  0.00    +0.000 C 
ENDBRANCH  16  17
ENDBRANCH   7  16
TORSDOF 3
ENDMDL
MODEL 10
REMARK VINA RESULT:     0.000      6.178      8.174
REMARK INTER + INTRA:          -0.480
REMARK INTER:                   0.000
REMARK INTRA:                  -0.480
REMARK UNBOUND:                -0.480
REMARK  Name = 
REMARK  5 active torsions:
REMARK  status: ('A' for Active; 'I' for Inactive)
REMARK    1  A    between atoms: C_1  and  C_2
REMARK    2  A    between atoms: C_2  and  C_3
REMARK    3  A    between atoms: C_5  and  C_6
REMARK    4  A    between atoms: C_9  and  C_10
REMARK    5  A    between atoms: C_10  and  N_11
REMARK                            x       y       z     vdW  Elec       q    Type
REMARK                         _______ _______ _______ _____ _____    ______ ____
ROOT
ATOM      1  C   UNL     1     -44.501-302.579  58.646  0.00  0.00    +0.000 A 
ATOM      2  C   UNL     1     -45.551-302.121  59.459  0.00  0.00    +0.000 A 
ATOM      3  C   UNL     1     -46.013-300.801  59.401  0.00  0.00    +0.000 A 
ATOM      4  C   UNL     1     -47.129-300.368  60.304  0.00  0.00    +0.000 C 
ATOM      5  C   UNL     1     -45.437-299.922  58.482  0.00  0.00    +0.000 A 
ATOM      6  N   UNL     1     -45.901-298.603  58.336  0.00  0.00    +0.000 N 
ATOM      7  C   UNL     1     -45.405-297.757  57.360  0.00  0.00    +0.000 A 
ATOM      8  C   UNL     1     -44.697-298.249  56.317  0.00  0.00    +0.000 A 
ATOM      9  C   UNL     1     -43.958-299.526  56.561  0.00  0.00    +0.000 A 
ATOM     10  O   UNL     1     -42.896-299.755  55.963  0.00  0.00    +0.000 OA
ATOM     11  C   UNL     1     -44.435-300.410  57.626  0.00  0.00    +0.000 A 
ATOM     12  C   UNL     1     -43.917-301.702  57.739  0.00  0.00    +0.000 A 
ATOM     13  H   UNL     1     -46.412-298.192  59.108  0.00  0.00    +0.000 HD
ENDROOT
BRANCH   1  15
ATOM     14  C   UNL     1     -44.843-304.787  59.774  0.00  0.00    +0.000 C 
ATOM     15  C   UNL     1     -44.032-304.005  58.749  0.00  0.00    +0.000 C 
ENDBRANCH   1  15
BRANCH   7  16
ATOM     16  C   UNL     1     -45.562-296.238  57.577  0.00  0.00    +0.000 C 
BRANCH  16  17
ATOM     17  N   UNL     1     -44.383-295.405  57.946  0.00  0.00    +0.000 NA
ATOM     18  C   UNL     1     -43.537-295.974  59.020  0.00  0.00    +0.000 C 
ATOM     19  C   UNL     1     -44.102-295.689  60.424  0.00  0.00    +0.000 C 
ATOM     20  O   UNL     1     -44.367-294.305  60.673  0.00  0.00    +0.000 OA
ATOM     21  C   UNL     1     -45.296-293.823  59.682  0.00  0.00    +0.000 C 
ATOM     22  C   UNL     1     -44.672-293.994  58.293  0.00  0.00    +0.000 C 
ENDBRANCH  16  17
ENDBRANCH   7  16
TORSDOF 3
ENDMDL
