MODEL 1
REMARK VINA RESULT:    -8.763      0.000      0.000
REMARK INTER + INTRA:         -15.158
REMARK INTER:                 -13.374
REMARK INTRA:                  -1.784
REMARK UNBOUND:                -1.784
REMARK  Name = 
REMARK  13 active torsions:
REMARK  status: ('A' for Active; 'I' for Inactive)
REMARK    1  A    between atoms: C_1  and  C_2
REMARK    2  A    between atoms: C_3  and  C_4
REMARK    3  A    between atoms: C_4  and  N_5
REMARK    4  A    between atoms: N_5  and  C_6
REMARK    5  A    between atoms: C_6  and  C_7
REMARK    6  A    between atoms: N_9  and  C_10
REMARK    7  A    between atoms: C_18  and  C_20
REMARK    8  A    between atoms: C_20  and  N_21
REMARK    9  A    between atoms: C_22  and  O_24
REMARK   10  A    between atoms: O_24  and  C_25
REMARK   11  A    between atoms: C_25  and  C_26
REMARK   12  A    between atoms: C_25  and  C_27
REMARK   13  A    between atoms: C_25  and  C_28
REMARK                            x       y       z     vdW  Elec       q    Type
REMARK                         _______ _______ _______ _____ _____    ______ ____
ROOT
ATOM      1  N   UNL     1     -41.152-161.090 308.803  0.00  0.00    +0.000 N 
ATOM      2  C   UNL     1     -41.250-159.692 308.685  0.00  0.00    +0.000 C 
ATOM      3  O   UNL     1     -40.251-158.974 308.563  0.00  0.00    +0.000 OA
ENDROOT
BRANCH   1   4
ATOM      4  C   UNL     1     -39.836-161.689 308.802  0.00  0.00    +0.000 C 
BRANCH   4   7
ATOM      5  C   UNL     1     -38.737-165.051 307.382  0.00  0.00    +0.000 C 
ATOM      6  C   UNL     1     -39.090-163.948 308.295  0.00  0.00    +0.000 C 
ATOM      7  C   UNL     1     -39.616-162.791 307.852  0.00  0.00    +0.000 C 
ENDBRANCH   4   7
ENDBRANCH   1   4
BRANCH   1   8
ATOM      8  C   UNL     1     -42.207-161.875 309.440  0.00  0.00    +0.000 C 
BRANCH   8   9
ATOM      9  C   UNL     1     -41.920-162.538 310.808  0.00  0.00    +0.000 C 
ATOM     10  O   UNL     1     -41.674-163.744 310.855  0.00  0.00    +0.000 OA
ATOM     11  N   UNL     1     -41.763-161.979 312.023  0.00  0.00    +0.000 N 
ATOM     12  H   UNL     1     -41.341-162.639 312.667  0.00  0.00    +0.000 HD
BRANCH  11  13
ATOM     13  C   UNL     1     -41.738-160.629 312.307  0.00  0.00    +0.000 A 
ATOM     14  C   UNL     1     -42.917-159.997 312.597  0.00  0.00    +0.000 A 
ATOM     15  F   UNL     1     -43.981-160.753 312.894  0.00  0.00    +0.000 F 
ATOM     16  C   UNL     1     -43.031-158.615 312.521  0.00  0.00    +0.000 A 
ATOM     17  C   UNL     1     -41.891-157.855 312.363  0.00  0.00    +0.000 A 
ATOM     18  C   UNL     1     -40.651-158.495 312.378  0.00  0.00    +0.000 A 
ATOM     19  C   UNL     1     -40.576-159.888 312.349  0.00  0.00    +0.000 A 
ATOM     20  F   UNL     1     -39.383-160.495 312.321  0.00  0.00    +0.000 F 
ENDBRANCH  11  13
ENDBRANCH   8   9
ENDBRANCH   1   8
BRANCH   2  21
ATOM     21  C   UNL     1     -42.627-159.013 308.802  0.00  0.00    +0.000 C 
BRANCH  21  22
ATOM     22  N   UNL     1     -42.476-157.581 308.939  0.00  0.00    +0.000 N 
ATOM     23  C   UNL     1     -43.240-156.592 308.390  0.00  0.00    +0.000 C 
ATOM     24  O   UNL     1     -42.818-155.446 308.390  0.00  0.00    +0.000 OA
ATOM     25  H   UNL     1     -41.592-157.251 309.303  0.00  0.00    +0.000 HD
BRANCH  23  26
ATOM     26  O   UNL     1     -44.407-157.016 307.837  0.00  0.00    +0.000 OA
BRANCH  26  27
ATOM     27  C   UNL     1     -44.732-156.740 306.431  0.00  0.00    +0.000 C 
ATOM     28  C   UNL     1     -45.781-157.766 306.037  0.00  0.00    +0.000 C 
ATOM     29  C   UNL     1     -45.208-155.294 306.182  0.00  0.00    +0.000 C 
ATOM     30  C   UNL     1     -43.496-156.974 305.509  0.00  0.00    +0.000 C 
ENDBRANCH  26  27
ENDBRANCH  23  26
ENDBRANCH  21  22
ENDBRANCH   2  21
TORSDOF 9
ENDMDL
MODEL 2
REMARK VINA RESULT:    -8.716      2.585      7.146
REMARK INTER + INTRA:         -15.085
REMARK INTER:                 -13.762
REMARK INTRA:                  -1.323
REMARK UNBOUND:                -1.784
REMARK  Name = 
REMARK  13 active torsions:
REMARK  status: ('A' for Active; 'I' for Inactive)
REMARK    1  A    between atoms: C_1  and  C_2
REMARK    2  A    between atoms: C_3  and  C_4
REMARK    3  A    between atoms: C_4  and  N_5
REMARK    4  A    between atoms: N_5  and  C_6
REMARK    5  A    between atoms: C_6  and  C_7
REMARK    6  A    between atoms: N_9  and  C_10
REMARK    7  A    between atoms: C_18  and  C_20
REMARK    8  A    between atoms: C_20  and  N_21
REMARK    9  A    between atoms: C_22  and  O_24
REMARK   10  A    between atoms: O_24  and  C_25
REMARK   11  A    between atoms: C_25  and  C_26
REMARK   12  A    between atoms: C_25  and  C_27
REMARK   13  A    between atoms: C_25  and  C_28
REMARK                            x       y       z     vdW  Elec       q    Type
REMARK                         _______ _______ _______ _____ _____    ______ ____
ROOT
ATOM      1  N   UNL     1     -41.573-159.932 309.960  0.00  0.00    +0.000 N 
ATOM      2  C   UNL     1     -40.838-161.131 309.914  0.00  0.00    +0.000 C 
ATOM      3  O   UNL     1     -40.008-161.423 310.781  0.00  0.00    +0.000 OA
ENDROOT
BRANCH   1   4
ATOM      4  C   UNL     1     -41.321-159.015 311.050  0.00  0.00    +0.000 C 
BRANCH   4   7
ATOM      5  C   UNL     1     -43.910-160.163 313.602  0.00  0.00    +0.000 C 
ATOM      6  C   UNL     1     -42.817-160.129 312.611  0.00  0.00    +0.000 C 
ATOM      7  C   UNL     1     -42.330-158.974 312.121  0.00  0.00    +0.000 C 
ENDBRANCH   4   7
ENDBRANCH   1   4
BRANCH   1   8
ATOM      8  C   UNL     1     -42.144-159.342 308.751  0.00  0.00    +0.000 C 
BRANCH   8   9
ATOM      9  C   UNL     1     -41.230-158.500 307.831  0.00  0.00    +0.000 C 
ATOM     10  O   UNL     1     -40.118-158.930 307.524  0.00  0.00    +0.000 OA
ATOM     11  N   UNL     1     -41.492-157.359 307.164  0.00  0.00    +0.000 N 
ATOM     12  H   UNL     1     -40.785-157.189 306.457  0.00  0.00    +0.000 HD
BRANCH  11  13
ATOM     13  C   UNL     1     -42.710-156.717 307.086  0.00  0.00    +0.000 A 
ATOM     14  C   UNL     1     -43.396-156.751 305.901  0.00  0.00    +0.000 A 
ATOM     15  F   UNL     1     -43.017-157.645 304.979  0.00  0.00    +0.000 F 
ATOM     16  C   UNL     1     -44.411-155.843 305.630  0.00  0.00    +0.000 A 
ATOM     17  C   UNL     1     -44.881-155.038 306.646  0.00  0.00    +0.000 A 
ATOM     18  C   UNL     1     -44.385-155.228 307.936  0.00  0.00    +0.000 A 
ATOM     19  C   UNL     1     -43.294-156.071 308.155  0.00  0.00    +0.000 A 
ATOM     20  F   UNL     1     -42.796-156.216 309.390  0.00  0.00    +0.000 F 
ENDBRANCH  11  13
ENDBRANCH   8   9
ENDBRANCH   1   8
BRANCH   2  21
ATOM     21  C   UNL     1     -40.996-162.072 308.705  0.00  0.00    +0.000 C 
BRANCH  21  22
ATOM     22  N   UNL     1     -39.949-161.832 307.736  0.00  0.00    +0.000 N 
ATOM     23  C   UNL     1     -38.747-162.467 307.612  0.00  0.00    +0.000 C 
ATOM     24  O   UNL     1     -37.880-161.965 306.914  0.00  0.00    +0.000 OA
ATOM     25  H   UNL     1     -40.002-160.964 307.219  0.00  0.00    +0.000 HD
BRANCH  23  26
ATOM     26  O   UNL     1     -38.626-163.604 308.346  0.00  0.00    +0.000 OA
BRANCH  26  27
ATOM     27  C   UNL     1     -38.598-164.927 307.709  0.00  0.00    +0.000 C 
ATOM     28  C   UNL     1     -39.504-165.813 308.548  0.00  0.00    +0.000 C 
ATOM     29  C   UNL     1     -39.017-164.904 306.225  0.00  0.00    +0.000 C 
ATOM     30  C   UNL     1     -37.170-165.551 307.766  0.00  0.00    +0.000 C 
ENDBRANCH  26  27
ENDBRANCH  23  26
ENDBRANCH  21  22
ENDBRANCH   2  21
TORSDOF 9
ENDMDL
MODEL 3
REMARK VINA RESULT:    -8.702      1.454      2.454
REMARK INTER + INTRA:         -15.064
REMARK INTER:                 -13.953
REMARK INTRA:                  -1.111
REMARK UNBOUND:                -1.784
REMARK  Name = 
REMARK  13 active torsions:
REMARK  status: ('A' for Active; 'I' for Inactive)
REMARK    1  A    between atoms: C_1  and  C_2
REMARK    2  A    between atoms: C_3  and  C_4
REMARK    3  A    between atoms: C_4  and  N_5
REMARK    4  A    between atoms: N_5  and  C_6
REMARK    5  A    between atoms: C_6  and  C_7
REMARK    6  A    between atoms: N_9  and  C_10
REMARK    7  A    between atoms: C_18  and  C_20
REMARK    8  A    between atoms: C_20  and  N_21
REMARK    9  A    between atoms: C_22  and  O_24
REMARK   10  A    between atoms: O_24  and  C_25
REMARK   11  A    between atoms: C_25  and  C_26
REMARK   12  A    between atoms: C_25  and  C_27
REMARK   13  A    between atoms: C_25  and  C_28
REMARK                            x       y       z     vdW  Elec       q    Type
REMARK                         _______ _______ _______ _____ _____    ______ ____
ROOT
ATOM      1  N   UNL     1     -40.660-162.531 308.637  0.00  0.00    +0.000 N 
ATOM      2  C   UNL     1     -40.254-161.359 307.974  0.00  0.00    +0.000 C 
ATOM      3  O   UNL     1     -39.089-161.190 307.599  0.00  0.00    +0.000 OA
ENDROOT
BRANCH   1   4
ATOM      4  C   UNL     1     -39.668-163.551 308.899  0.00  0.00    +0.000 C 
BRANCH   4   7
ATOM      5  C   UNL     1     -38.585-165.725 305.961  0.00  0.00    +0.000 C 
ATOM      6  C   UNL     1     -38.637-164.696 307.017  0.00  0.00    +0.000 C 
ATOM      7  C   UNL     1     -39.609-164.671 307.947  0.00  0.00    +0.000 C 
ENDBRANCH   4   7
ENDBRANCH   1   4
BRANCH   1   8
ATOM      8  C   UNL     1     -41.831-162.544 309.511  0.00  0.00    +0.000 C 
BRANCH   8   9
ATOM      9  C   UNL     1     -41.641-162.897 311.005  0.00  0.00    +0.000 C 
ATOM     10  O   UNL     1     -41.315-164.042 311.320  0.00  0.00    +0.000 OA
ATOM     11  N   UNL     1     -41.656-162.098 312.090  0.00  0.00    +0.000 N 
ATOM     12  H   UNL     1     -41.257-162.577 312.890  0.00  0.00    +0.000 HD
BRANCH  11  13
ATOM     13  C   UNL     1     -41.759-160.723 312.093  0.00  0.00    +0.000 A 
ATOM     14  C   UNL     1     -40.661-159.981 311.746  0.00  0.00    +0.000 A 
ATOM     15  F   UNL     1     -39.648-160.605 311.131  0.00  0.00    +0.000 F 
ATOM     16  C   UNL     1     -40.566-158.636 312.079  0.00  0.00    +0.000 A 
ATOM     17  C   UNL     1     -41.678-157.987 312.573  0.00  0.00    +0.000 A 
ATOM     18  C   UNL     1     -42.887-158.679 312.633  0.00  0.00    +0.000 A 
ATOM     19  C   UNL     1     -42.927-160.053 312.393  0.00  0.00    +0.000 A 
ATOM     20  F   UNL     1     -44.084-160.719 312.494  0.00  0.00    +0.000 F 
ENDBRANCH  11  13
ENDBRANCH   8   9
ENDBRANCH   1   8
BRANCH   2  21
ATOM     21  C   UNL     1     -41.257-160.206 307.787  0.00  0.00    +0.000 C 
BRANCH  21  22
ATOM     22  N   UNL     1     -40.585-159.026 307.287  0.00  0.00    +0.000 N 
ATOM     23  C   UNL     1     -41.130-157.939 306.667  0.00  0.00    +0.000 C 
ATOM     24  O   UNL     1     -40.396-157.162 306.076  0.00  0.00    +0.000 OA
ATOM     25  H   UNL     1     -39.581-159.086 307.185  0.00  0.00    +0.000 HD
BRANCH  23  26
ATOM     26  O   UNL     1     -42.486-157.866 306.735  0.00  0.00    +0.000 OA
BRANCH  26  27
ATOM     27  C   UNL     1     -43.157-156.976 307.692  0.00  0.00    +0.000 C 
ATOM     28  C   UNL     1     -44.643-157.094 307.397  0.00  0.00    +0.000 C 
ATOM     29  C   UNL     1     -42.827-157.294 309.164  0.00  0.00    +0.000 C 
ATOM     30  C   UNL     1     -42.761-155.487 307.451  0.00  0.00    +0.000 C 
ENDBRANCH  26  27
ENDBRANCH  23  26
ENDBRANCH  21  22
ENDBRANCH   2  21
TORSDOF 9
ENDMDL
MODEL 4
REMARK VINA RESULT:    -8.669      2.582      5.474
REMARK INTER + INTRA:         -15.015
REMARK INTER:                 -14.080
REMARK INTRA:                  -0.935
REMARK UNBOUND:                -1.784
REMARK  Name = 
REMARK  13 active torsions:
REMARK  status: ('A' for Active; 'I' for Inactive)
REMARK    1  A    between atoms: C_1  and  C_2
REMARK    2  A    between atoms: C_3  and  C_4
REMARK    3  A    between atoms: C_4  and  N_5
REMARK    4  A    between atoms: N_5  and  C_6
REMARK    5  A    between atoms: C_6  and  C_7
REMARK    6  A    between atoms: N_9  and  C_10
REMARK    7  A    between atoms: C_18  and  C_20
REMARK    8  A    between atoms: C_20  and  N_21
REMARK    9  A    between atoms: C_22  and  O_24
REMARK   10  A    between atoms: O_24  and  C_25
REMARK   11  A    between atoms: C_25  and  C_26
REMARK   12  A    between atoms: C_25  and  C_27
REMARK   13  A    between atoms: C_25  and  C_28
REMARK                            x       y       z     vdW  Elec       q    Type
REMARK                         _______ _______ _______ _____ _____    ______ ____
ROOT
ATOM      1  N   UNL     1     -41.636-160.831 309.495  0.00  0.00    +0.000 N 
ATOM      2  C   UNL     1     -41.677-159.506 309.025  0.00  0.00    +0.000 C 
ATOM      3  O   UNL     1     -42.658-158.776 309.209  0.00  0.00    +0.000 OA
ENDROOT
BRANCH   1   4
ATOM      4  C   UNL     1     -42.793-161.347 310.194  0.00  0.00    +0.000 C 
BRANCH   4   7
ATOM      5  C   UNL     1     -43.535-160.081 313.712  0.00  0.00    +0.000 C 
ATOM      6  C   UNL     1     -43.580-160.330 312.258  0.00  0.00    +0.000 C 
ATOM      7  C   UNL     1     -42.779-161.232 311.661  0.00  0.00    +0.000 C 
ENDBRANCH   4   7
ENDBRANCH   1   4
BRANCH   1   8
ATOM      8  C   UNL     1     -40.768-161.830 308.878  0.00  0.00    +0.000 C 
BRANCH   8   9
ATOM      9  C   UNL     1     -39.768-162.602 309.771  0.00  0.00    +0.000 C 
ATOM     10  O   UNL     1     -39.697-162.334 310.971  0.00  0.00    +0.000 OA
ATOM     11  N   UNL     1     -38.993-163.665 309.481  0.00  0.00    +0.000 N 
ATOM     12  H   UNL     1     -38.643-164.093 310.331  0.00  0.00    +0.000 HD
BRANCH  11  13
ATOM     13  C   UNL     1     -38.990-164.378 308.301  0.00  0.00    +0.000 A 
ATOM     14  C   UNL     1     -39.672-165.565 308.248  0.00  0.00    +0.000 A 
ATOM     15  F   UNL     1     -40.553-165.828 309.221  0.00  0.00    +0.000 F 
ATOM     16  C   UNL     1     -39.414-166.501 307.255  0.00  0.00    +0.000 A 
ATOM     17  C   UNL     1     -38.619-166.143 306.186  0.00  0.00    +0.000 A 
ATOM     18  C   UNL     1     -38.176-164.824 306.091  0.00  0.00    +0.000 A 
ATOM     19  C   UNL     1     -38.362-163.939 307.154  0.00  0.00    +0.000 A 
ATOM     20  F   UNL     1     -37.897-162.686 307.073  0.00  0.00    +0.000 F 
ENDBRANCH  11  13
ENDBRANCH   8   9
ENDBRANCH   1   8
BRANCH   2  21
ATOM     21  C   UNL     1     -40.513-158.965 308.175  0.00  0.00    +0.000 C 
BRANCH  21  22
ATOM     22  N   UNL     1     -40.906-158.859 306.787  0.00  0.00    +0.000 N 
ATOM     23  C   UNL     1     -41.540-157.824 306.161  0.00  0.00    +0.000 C 
ATOM     24  O   UNL     1     -42.031-158.007 305.059  0.00  0.00    +0.000 OA
ATOM     25  H   UNL     1     -40.911-159.716 306.251  0.00  0.00    +0.000 HD
BRANCH  23  26
ATOM     26  O   UNL     1     -41.602-156.675 306.886  0.00  0.00    +0.000 OA
BRANCH  26  27
ATOM     27  C   UNL     1     -42.862-155.935 307.039  0.00  0.00    +0.000 C 
ATOM     28  C   UNL     1     -42.837-154.847 305.978  0.00  0.00    +0.000 C 
ATOM     29  C   UNL     1     -44.117-156.826 306.932  0.00  0.00    +0.000 C 
ATOM     30  C   UNL     1     -42.933-155.221 308.424  0.00  0.00    +0.000 C 
ENDBRANCH  26  27
ENDBRANCH  23  26
ENDBRANCH  21  22
ENDBRANCH   2  21
TORSDOF 9
ENDMDL
MODEL 5
REMARK VINA RESULT:    -8.633      2.430      6.469
REMARK INTER + INTRA:         -14.959
REMARK INTER:                 -13.178
REMARK INTRA:                  -1.781
REMARK UNBOUND:                -1.784
REMARK  Name = 
REMARK  13 active torsions:
REMARK  status: ('A' for Active; 'I' for Inactive)
REMARK    1  A    between atoms: C_1  and  C_2
REMARK    2  A    between atoms: C_3  and  C_4
REMARK    3  A    between atoms: C_4  and  N_5
REMARK    4  A    between atoms: N_5  and  C_6
REMARK    5  A    between atoms: C_6  and  C_7
REMARK    6  A    between atoms: N_9  and  C_10
REMARK    7  A    between atoms: C_18  and  C_20
REMARK    8  A    between atoms: C_20  and  N_21
REMARK    9  A    between atoms: C_22  and  O_24
REMARK   10  A    between atoms: O_24  and  C_25
REMARK   11  A    between atoms: C_25  and  C_26
REMARK   12  A    between atoms: C_25  and  C_27
REMARK   13  A    between atoms: C_25  and  C_28
REMARK                            x       y       z     vdW  Elec       q    Type
REMARK                         _______ _______ _______ _____ _____    ______ ____
ROOT
ATOM      1  N   UNL     1     -40.670-161.238 308.896  0.00  0.00    +0.000 N 
ATOM      2  C   UNL     1     -39.879-161.935 307.965  0.00  0.00    +0.000 C 
ATOM      3  O   UNL     1     -39.107-161.352 307.195  0.00  0.00    +0.000 OA
ENDROOT
BRANCH   1   4
ATOM      4  C   UNL     1     -40.583-159.794 308.926  0.00  0.00    +0.000 C 
BRANCH   4   7
ATOM      5  C   UNL     1     -43.559-157.495 308.302  0.00  0.00    +0.000 C 
ATOM      6  C   UNL     1     -42.404-158.182 308.911  0.00  0.00    +0.000 C 
ATOM      7  C   UNL     1     -41.646-159.057 308.225  0.00  0.00    +0.000 C 
ENDBRANCH   4   7
ENDBRANCH   1   4
BRANCH   1   8
ATOM      8  C   UNL     1     -41.905-161.812 309.426  0.00  0.00    +0.000 C 
BRANCH   8   9
ATOM      9  C   UNL     1     -41.874-162.496 310.812  0.00  0.00    +0.000 C 
ATOM     10  O   UNL     1     -41.713-163.715 310.881  0.00  0.00    +0.000 OA
ATOM     11  N   UNL     1     -41.874-161.952 312.044  0.00  0.00    +0.000 N 
ATOM     12  H   UNL     1     -41.597-162.639 312.737  0.00  0.00    +0.000 HD
BRANCH  11  13
ATOM     13  C   UNL     1     -41.810-160.607 312.346  0.00  0.00    +0.000 A 
ATOM     14  C   UNL     1     -42.972-159.945 312.641  0.00  0.00    +0.000 A 
ATOM     15  F   UNL     1     -44.058-160.674 312.926  0.00  0.00    +0.000 F 
ATOM     16  C   UNL     1     -43.045-158.559 312.584  0.00  0.00    +0.000 A 
ATOM     17  C   UNL     1     -41.883-157.831 312.439  0.00  0.00    +0.000 A 
ATOM     18  C   UNL     1     -40.663-158.506 312.449  0.00  0.00    +0.000 A 
ATOM     19  C   UNL     1     -40.627-159.900 312.400  0.00  0.00    +0.000 A 
ATOM     20  F   UNL     1     -39.452-160.541 312.368  0.00  0.00    +0.000 F 
ENDBRANCH  11  13
ENDBRANCH   8   9
ENDBRANCH   1   8
BRANCH   2  21
ATOM     21  C   UNL     1     -40.035-163.460 307.826  0.00  0.00    +0.000 C 
BRANCH  21  22
ATOM     22  N   UNL     1     -39.105-164.146 308.695  0.00  0.00    +0.000 N 
ATOM     23  C   UNL     1     -38.080-164.980 308.351  0.00  0.00    +0.000 C 
ATOM     24  O   UNL     1     -37.567-165.678 309.212  0.00  0.00    +0.000 OA
ATOM     25  H   UNL     1     -39.353-164.196 309.675  0.00  0.00    +0.000 HD
BRANCH  23  26
ATOM     26  O   UNL     1     -37.767-164.979 307.028  0.00  0.00    +0.000 OA
BRANCH  26  27
ATOM     27  C   UNL     1     -37.964-166.174 306.195  0.00  0.00    +0.000 C 
ATOM     28  C   UNL     1     -38.252-165.660 304.794  0.00  0.00    +0.000 C 
ATOM     29  C   UNL     1     -36.769-167.149 306.225  0.00  0.00    +0.000 C 
ATOM     30  C   UNL     1     -39.218-166.981 306.652  0.00  0.00    +0.000 C 
ENDBRANCH  26  27
ENDBRANCH  23  26
ENDBRANCH  21  22
ENDBRANCH   2  21
TORSDOF 9
ENDMDL
MODEL 6
REMARK VINA RESULT:    -8.566      2.592      7.333
REMARK INTER + INTRA:         -14.856
REMARK INTER:                 -13.945
REMARK INTRA:                  -0.912
REMARK UNBOUND:                -1.784
REMARK  Name = 
REMARK  13 active torsions:
REMARK  status: ('A' for Active; 'I' for Inactive)
REMARK    1  A    between atoms: C_1  and  C_2
REMARK    2  A    between atoms: C_3  and  C_4
REMARK    3  A    between atoms: C_4  and  N_5
REMARK    4  A    between atoms: N_5  and  C_6
REMARK    5  A    between atoms: C_6  and  C_7
REMARK    6  A    between atoms: N_9  and  C_10
REMARK    7  A    between atoms: C_18  and  C_20
REMARK    8  A    between atoms: C_20  and  N_21
REMARK    9  A    between atoms: C_22  and  O_24
REMARK   10  A    between atoms: O_24  and  C_25
REMARK   11  A    between atoms: C_25  and  C_26
REMARK   12  A    between atoms: C_25  and  C_27
REMARK   13  A    between atoms: C_25  and  C_28
REMARK                            x       y       z     vdW  Elec       q    Type
REMARK                         _______ _______ _______ _____ _____    ______ ____
ROOT
ATOM      1  N   UNL     1     -41.540-160.501 309.953  0.00  0.00    +0.000 N 
ATOM      2  C   UNL     1     -40.787-161.688 309.911  0.00  0.00    +0.000 C 
ATOM      3  O   UNL     1     -40.037-162.020 310.836  0.00  0.00    +0.000 OA
ENDROOT
BRANCH   1   4
ATOM      4  C   UNL     1     -41.406-159.643 311.110  0.00  0.00    +0.000 C 
BRANCH   4   7
ATOM      5  C   UNL     1     -43.975-160.227 313.865  0.00  0.00    +0.000 C 
ATOM      6  C   UNL     1     -42.751-160.254 313.042  0.00  0.00    +0.000 C 
ATOM      7  C   UNL     1     -42.603-159.481 311.950  0.00  0.00    +0.000 C 
ENDBRANCH   4   7
ENDBRANCH   1   4
BRANCH   1   8
ATOM      8  C   UNL     1     -42.004-159.850 308.729  0.00  0.00    +0.000 C 
BRANCH   8   9
ATOM      9  C   UNL     1     -41.041-158.898 307.981  0.00  0.00    +0.000 C 
ATOM     10  O   UNL     1     -39.849-159.192 307.891  0.00  0.00    +0.000 OA
ATOM     11  N   UNL     1     -41.308-157.790 307.263  0.00  0.00    +0.000 N 
ATOM     12  H   UNL     1     -40.507-157.532 306.696  0.00  0.00    +0.000 HD
BRANCH  11  13
ATOM     13  C   UNL     1     -42.558-157.296 306.953  0.00  0.00    +0.000 A 
ATOM     14  C   UNL     1     -43.345-156.818 307.968  0.00  0.00    +0.000 A 
ATOM     15  F   UNL     1     -42.766-156.565 309.149  0.00  0.00    +0.000 F 
ATOM     16  C   UNL     1     -44.715-156.661 307.803  0.00  0.00    +0.000 A 
ATOM     17  C   UNL     1     -45.258-156.781 306.541  0.00  0.00    +0.000 A 
ATOM     18  C   UNL     1     -44.400-156.964 305.457  0.00  0.00    +0.000 A 
ATOM     19  C   UNL     1     -43.044-157.224 305.665  0.00  0.00    +0.000 A 
ATOM     20  F   UNL     1     -42.234-157.440 304.621  0.00  0.00    +0.000 F 
ENDBRANCH  11  13
ENDBRANCH   8   9
ENDBRANCH   1   8
BRANCH   2  21
ATOM     21  C   UNL     1     -40.815-162.562 308.644  0.00  0.00    +0.000 C 
BRANCH  21  22
ATOM     22  N   UNL     1     -40.834-163.965 308.997  0.00  0.00    +0.000 N 
ATOM     23  C   UNL     1     -39.824-164.878 308.895  0.00  0.00    +0.000 C 
ATOM     24  O   UNL     1     -40.087-166.067 308.985  0.00  0.00    +0.000 OA
ATOM     25  H   UNL     1     -41.743-164.384 309.137  0.00  0.00    +0.000 HD
BRANCH  23  26
ATOM     26  O   UNL     1     -38.599-164.345 308.643  0.00  0.00    +0.000 OA
BRANCH  26  27
ATOM     27  C   UNL     1     -37.959-164.487 307.329  0.00  0.00    +0.000 C 
ATOM     28  C   UNL     1     -37.589-163.079 306.892  0.00  0.00    +0.000 C 
ATOM     29  C   UNL     1     -36.742-165.434 307.336  0.00  0.00    +0.000 C 
ATOM     30  C   UNL     1     -38.960-165.044 306.270  0.00  0.00    +0.000 C 
ENDBRANCH  26  27
ENDBRANCH  23  26
ENDBRANCH  21  22
ENDBRANCH   2  21
TORSDOF 9
ENDMDL
MODEL 7
REMARK VINA RESULT:    -8.429      2.359      4.824
REMARK INTER + INTRA:         -14.647
REMARK INTER:                 -13.942
REMARK INTRA:                  -0.705
REMARK UNBOUND:                -1.784
REMARK  Name = 
REMARK  13 active torsions:
REMARK  status: ('A' for Active; 'I' for Inactive)
REMARK    1  A    between atoms: C_1  and  C_2
REMARK    2  A    between atoms: C_3  and  C_4
REMARK    3  A    between atoms: C_4  and  N_5
REMARK    4  A    between atoms: N_5  and  C_6
REMARK    5  A    between atoms: C_6  and  C_7
REMARK    6  A    between atoms: N_9  and  C_10
REMARK    7  A    between atoms: C_18  and  C_20
REMARK    8  A    between atoms: C_20  and  N_21
REMARK    9  A    between atoms: C_22  and  O_24
REMARK   10  A    between atoms: O_24  and  C_25
REMARK   11  A    between atoms: C_25  and  C_26
REMARK   12  A    between atoms: C_25  and  C_27
REMARK   13  A    between atoms: C_25  and  C_28
REMARK                            x       y       z     vdW  Elec       q    Type
REMARK                         _______ _______ _______ _____ _____    ______ ____
ROOT
ATOM      1  N   UNL     1     -41.038-159.518 310.420  0.00  0.00    +0.000 N 
ATOM      2  C   UNL     1     -41.703-158.782 309.423  0.00  0.00    +0.000 C 
ATOM      3  O   UNL     1     -42.438-157.826 309.695  0.00  0.00    +0.000 OA
ENDROOT
BRANCH   1   4
ATOM      4  C   UNL     1     -41.249-159.148 311.802  0.00  0.00    +0.000 C 
BRANCH   4   7
ATOM      5  C   UNL     1     -41.685-161.708 314.593  0.00  0.00    +0.000 C 
ATOM      6  C   UNL     1     -41.934-160.761 313.489  0.00  0.00    +0.000 C 
ATOM      7  C   UNL     1     -40.931-160.170 312.812  0.00  0.00    +0.000 C 
ENDBRANCH   4   7
ENDBRANCH   1   4
BRANCH   1   8
ATOM      8  C   UNL     1     -40.608-160.895 310.189  0.00  0.00    +0.000 C 
BRANCH   8   9
ATOM      9  C   UNL     1     -41.680-161.972 309.901  0.00  0.00    +0.000 C 
ATOM     10  O   UNL     1     -42.860-161.736 310.163  0.00  0.00    +0.000 OA
ATOM     11  N   UNL     1     -41.567-163.155 309.265  0.00  0.00    +0.000 N 
ATOM     12  H   UNL     1     -42.483-163.514 309.016  0.00  0.00    +0.000 HD
BRANCH  11  13
ATOM     13  C   UNL     1     -40.443-163.640 308.631  0.00  0.00    +0.000 A 
ATOM     14  C   UNL     1     -40.016-164.907 308.928  0.00  0.00    +0.000 A 
ATOM     15  F   UNL     1     -40.862-165.722 309.571  0.00  0.00    +0.000 F 
ATOM     16  C   UNL     1     -38.723-165.319 308.634  0.00  0.00    +0.000 A 
ATOM     17  C   UNL     1     -37.928-164.519 307.841  0.00  0.00    +0.000 A 
ATOM     18  C   UNL     1     -38.480-163.366 307.283  0.00  0.00    +0.000 A 
ATOM     19  C   UNL     1     -39.743-162.925 307.682  0.00  0.00    +0.000 A 
ATOM     20  F   UNL     1     -40.250-161.795 307.173  0.00  0.00    +0.000 F 
ENDBRANCH  11  13
ENDBRANCH   8   9
ENDBRANCH   1   8
BRANCH   2  21
ATOM     21  C   UNL     1     -41.595-159.224 307.952  0.00  0.00    +0.000 C 
BRANCH  21  22
ATOM     22  N   UNL     1     -40.845-158.254 307.185  0.00  0.00    +0.000 N 
ATOM     23  C   UNL     1     -41.316-157.311 306.317  0.00  0.00    +0.000 C 
ATOM     24  O   UNL     1     -40.535-156.757 305.560  0.00  0.00    +0.000 OA
ATOM     25  H   UNL     1     -39.849-158.410 307.106  0.00  0.00    +0.000 HD
BRANCH  23  26
ATOM     26  O   UNL     1     -42.662-157.125 306.357  0.00  0.00    +0.000 OA
BRANCH  26  27
ATOM     27  C   UNL     1     -43.243-155.811 306.666  0.00  0.00    +0.000 C 
ATOM     28  C   UNL     1     -44.620-156.091 307.246  0.00  0.00    +0.000 C 
ATOM     29  C   UNL     1     -42.373-154.960 307.613  0.00  0.00    +0.000 C 
ATOM     30  C   UNL     1     -43.457-154.970 305.370  0.00  0.00    +0.000 C 
ENDBRANCH  26  27
ENDBRANCH  23  26
ENDBRANCH  21  22
ENDBRANCH   2  21
TORSDOF 9
ENDMDL
MODEL 8
REMARK VINA RESULT:    -8.420      2.141      2.819
REMARK INTER + INTRA:         -14.633
REMARK INTER:                 -13.913
REMARK INTRA:                  -0.720
REMARK UNBOUND:                -1.784
REMARK  Name = 
REMARK  13 active torsions:
REMARK  status: ('A' for Active; 'I' for Inactive)
REMARK    1  A    between atoms: C_1  and  C_2
REMARK    2  A    between atoms: C_3  and  C_4
REMARK    3  A    between atoms: C_4  and  N_5
REMARK    4  A    between atoms: N_5  and  C_6
REMARK    5  A    between atoms: C_6  and  C_7
REMARK    6  A    between atoms: N_9  and  C_10
REMARK    7  A    between atoms: C_18  and  C_20
REMARK    8  A    between atoms: C_20  and  N_21
REMARK    9  A    between atoms: C_22  and  O_24
REMARK   10  A    between atoms: O_24  and  C_25
REMARK   11  A    between atoms: C_25  and  C_26
REMARK   12  A    between atoms: C_25  and  C_27
REMARK   13  A    between atoms: C_25  and  C_28
REMARK                            x       y       z     vdW  Elec       q    Type
REMARK                         _______ _______ _______ _____ _____    ______ ____
ROOT
ATOM      1  N   UNL     1     -41.207-161.040 309.317  0.00  0.00    +0.000 N 
ATOM      2  C   UNL     1     -40.784-160.364 308.158  0.00  0.00    +0.000 C 
ATOM      3  O   UNL     1     -39.674-160.563 307.652  0.00  0.00    +0.000 OA
ENDROOT
BRANCH   1   4
ATOM      4  C   UNL     1     -40.295-161.977 309.936  0.00  0.00    +0.000 C 
BRANCH   4   7
ATOM      5  C   UNL     1     -40.814-165.707 309.349  0.00  0.00    +0.000 C 
ATOM      6  C   UNL     1     -40.937-164.321 309.838  0.00  0.00    +0.000 C 
ATOM      7  C   UNL     1     -40.209-163.312 309.324  0.00  0.00    +0.000 C 
ENDBRANCH   4   7
ENDBRANCH   1   4
BRANCH   1   8
ATOM      8  C   UNL     1     -42.235-160.480 310.191  0.00  0.00    +0.000 C 
BRANCH   8   9
ATOM      9  C   UNL     1     -41.882-159.255 311.066  0.00  0.00    +0.000 C 
ATOM     10  O   UNL     1     -41.756-158.150 310.537  0.00  0.00    +0.000 OA
ATOM     11  N   UNL     1     -41.797-159.145 312.406  0.00  0.00    +0.000 N 
ATOM     12  H   UNL     1     -41.795-158.170 312.685  0.00  0.00    +0.000 HD
BRANCH  11  13
ATOM     13  C   UNL     1     -42.105-160.124 313.329  0.00  0.00    +0.000 A 
ATOM     14  C   UNL     1     -43.352-160.123 313.895  0.00  0.00    +0.000 A 
ATOM     15  F   UNL     1     -44.306-159.383 313.316  0.00  0.00    +0.000 F 
ATOM     16  C   UNL     1     -43.609-160.815 315.071  0.00  0.00    +0.000 A 
ATOM     17  C   UNL     1     -42.658-161.686 315.559  0.00  0.00    +0.000 A 
ATOM     18  C   UNL     1     -41.507-161.914 314.805  0.00  0.00    +0.000 A 
ATOM     19  C   UNL     1     -41.230-161.128 313.685  0.00  0.00    +0.000 A 
ATOM     20  F   UNL     1     -40.103-161.325 312.990  0.00  0.00    +0.000 F 
ENDBRANCH  11  13
ENDBRANCH   8   9
ENDBRANCH   1   8
BRANCH   2  21
ATOM     21  C   UNL     1     -41.682-159.274 307.543  0.00  0.00    +0.000 C 
BRANCH  21  22
ATOM     22  N   UNL     1     -40.884-158.304 306.828  0.00  0.00    +0.000 N 
ATOM     23  C   UNL     1     -41.308-157.253 306.066  0.00  0.00    +0.000 C 
ATOM     24  O   UNL     1     -40.513-156.699 305.323  0.00  0.00    +0.000 OA
ATOM     25  H   UNL     1     -39.908-158.533 306.690  0.00  0.00    +0.000 HD
BRANCH  23  26
ATOM     26  O   UNL     1     -42.630-156.963 306.185  0.00  0.00    +0.000 OA
BRANCH  26  27
ATOM     27  C   UNL     1     -43.096-155.583 306.384  0.00  0.00    +0.000 C 
ATOM     28  C   UNL     1     -42.223-155.005 307.486  0.00  0.00    +0.000 C 
ATOM     29  C   UNL     1     -43.057-154.729 305.100  0.00  0.00    +0.000 C 
ATOM     30  C   UNL     1     -44.566-155.553 306.904  0.00  0.00    +0.000 C 
ENDBRANCH  26  27
ENDBRANCH  23  26
ENDBRANCH  21  22
ENDBRANCH   2  21
TORSDOF 9
ENDMDL
MODEL 9
REMARK VINA RESULT:    -7.415      2.219      5.112
REMARK INTER + INTRA:         -13.101
REMARK INTER:                 -14.093
REMARK INTRA:                   0.992
REMARK UNBOUND:                -1.784
REMARK  Name = 
REMARK  13 active torsions:
REMARK  status: ('A' for Active; 'I' for Inactive)
REMARK    1  A    between atoms: C_1  and  C_2
REMARK    2  A    between atoms: C_3  and  C_4
REMARK    3  A    between atoms: C_4  and  N_5
REMARK    4  A    between atoms: N_5  and  C_6
REMARK    5  A    between atoms: C_6  and  C_7
REMARK    6  A    between atoms: N_9  and  C_10
REMARK    7  A    between atoms: C_18  and  C_20
REMARK    8  A    between atoms: C_20  and  N_21
REMARK    9  A    between atoms: C_22  and  O_24
REMARK   10  A    between atoms: O_24  and  C_25
REMARK   11  A    between atoms: C_25  and  C_26
REMARK   12  A    between atoms: C_25  and  C_27
REMARK   13  A    between atoms: C_25  and  C_28
REMARK                            x       y       z     vdW  Elec       q    Type
REMARK                         _______ _______ _______ _____ _____    ______ ____
ROOT
ATOM      1  N   UNL     1     -41.519-159.095 309.941  0.00  0.00    +0.000 N 
ATOM      2  C   UNL     1     -42.334-158.125 309.330  0.00  0.00    +0.000 C 
ATOM      3  O   UNL     1     -42.729-157.124 309.938  0.00  0.00    +0.000 OA
ENDROOT
BRANCH   1   4
ATOM      4  C   UNL     1     -41.158-158.912 311.330  0.00  0.00    +0.000 C 
BRANCH   4   7
ATOM      5  C   UNL     1     -43.805-160.104 313.799  0.00  0.00    +0.000 C 
ATOM      6  C   UNL     1     -43.087-159.376 312.736  0.00  0.00    +0.000 C 
ATOM      7  C   UNL     1     -41.866-159.750 312.309  0.00  0.00    +0.000 C 
ENDBRANCH   4   7
ENDBRANCH   1   4
BRANCH   1   8
ATOM      8  C   UNL     1     -41.471-160.469 309.447  0.00  0.00    +0.000 C 
BRANCH   8   9
ATOM      9  C   UNL     1     -40.524-160.806 308.272  0.00  0.00    +0.000 C 
ATOM     10  O   UNL     1     -40.024-159.891 307.617  0.00  0.00    +0.000 OA
ATOM     11  N   UNL     1     -40.021-161.993 307.880  0.00  0.00    +0.000 N 
ATOM     12  H   UNL     1     -39.244-161.858 307.242  0.00  0.00    +0.000 HD
BRANCH  11  13
ATOM     13  C   UNL     1     -40.180-163.202 308.524  0.00  0.00    +0.000 A 
ATOM     14  C   UNL     1     -39.178-164.132 308.431  0.00  0.00    +0.000 A 
ATOM     15  F   UNL     1     -37.980-163.726 307.992  0.00  0.00    +0.000 F 
ATOM     16  C   UNL     1     -39.409-165.471 308.719  0.00  0.00    +0.000 A 
ATOM     17  C   UNL     1     -40.601-165.834 309.312  0.00  0.00    +0.000 A 
ATOM     18  C   UNL     1     -41.495-164.832 309.688  0.00  0.00    +0.000 A 
ATOM     19  C   UNL     1     -41.284-163.511 309.291  0.00  0.00    +0.000 A 
ATOM     20  F   UNL     1     -42.168-162.561 309.620  0.00  0.00    +0.000 F 
ENDBRANCH  11  13
ENDBRANCH   8   9
ENDBRANCH   1   8
BRANCH   2  21
ATOM     21  C   UNL     1     -42.834-158.350 307.891  0.00  0.00    +0.000 C 
BRANCH  21  22
ATOM     22  N   UNL     1     -41.853-157.885 306.935  0.00  0.00    +0.000 N 
ATOM     23  C   UNL     1     -42.051-157.125 305.818  0.00  0.00    +0.000 C 
ATOM     24  O   UNL     1     -41.160-157.049 304.987  0.00  0.00    +0.000 OA
ATOM     25  H   UNL     1     -40.947-158.335 306.961  0.00  0.00    +0.000 HD
BRANCH  23  26
ATOM     26  O   UNL     1     -43.283-156.559 305.728  0.00  0.00    +0.000 OA
BRANCH  26  27
ATOM     27  C   UNL     1     -43.520-155.171 306.149  0.00  0.00    +0.000 C 
ATOM     28  C   UNL     1     -43.182-154.308 304.945  0.00  0.00    +0.000 C 
ATOM     29  C   UNL     1     -44.951-154.920 306.664  0.00  0.00    +0.000 C 
ATOM     30  C   UNL     1     -42.547-154.756 307.296  0.00  0.00    +0.000 C 
ENDBRANCH  26  27
ENDBRANCH  23  26
ENDBRANCH  21  22
ENDBRANCH   2  21
TORSDOF 9
ENDMDL
MODEL 10
REMARK VINA RESULT:    -7.348      2.252      5.140
REMARK INTER + INTRA:         -12.998
REMARK INTER:                 -13.043
REMARK INTRA:                   0.045
REMARK UNBOUND:                -1.784
REMARK  Name = 
REMARK  13 active torsions:
REMARK  status: ('A' for Active; 'I' for Inactive)
REMARK    1  A    between atoms: C_1  and  C_2
REMARK    2  A    between atoms: C_3  and  C_4
REMARK    3  A    between atoms: C_4  and  N_5
REMARK    4  A    between atoms: N_5  and  C_6
REMARK    5  A    between atoms: C_6  and  C_7
REMARK    6  A    between atoms: N_9  and  C_10
REMARK    7  A    between atoms: C_18  and  C_20
REMARK    8  A    between atoms: C_20  and  N_21
REMARK    9  A    between atoms: C_22  and  O_24
REMARK   10  A    between atoms: O_24  and  C_25
REMARK   11  A    between atoms: C_25  and  C_26
REMARK   12  A    between atoms: C_25  and  C_27
REMARK   13  A    between atoms: C_25  and  C_28
REMARK                            x       y       z     vdW  Elec       q    Type
REMARK                         _______ _______ _______ _____ _____    ______ ____
ROOT
ATOM      1  N   UNL     1     -40.861-159.827 311.368  0.00  0.00    +0.000 N 
ATOM      2  C   UNL     1     -41.523-158.831 310.627  0.00  0.00    +0.000 C 
ATOM      3  O   UNL     1     -42.228-157.972 311.169  0.00  0.00    +0.000 OA
ENDROOT
BRANCH   1   4
ATOM      4  C   UNL     1     -41.039-159.847 312.803  0.00  0.00    +0.000 C 
BRANCH   4   7
ATOM      5  C   UNL     1     -44.434-160.796 314.255  0.00  0.00    +0.000 C 
ATOM      6  C   UNL     1     -43.317-160.063 313.629  0.00  0.00    +0.000 C 
ATOM      7  C   UNL     1     -42.152-160.661 313.317  0.00  0.00    +0.000 C 
ENDBRANCH   4   7
ENDBRANCH   1   4
BRANCH   1   8
ATOM      8  C   UNL     1     -40.472-161.096 310.758  0.00  0.00    +0.000 C 
BRANCH   8   9
ATOM      9  C   UNL     1     -41.482-161.823 309.839  0.00  0.00    +0.000 C 
ATOM     10  O   UNL     1     -42.656-161.451 309.818  0.00  0.00    +0.000 OA
ATOM     11  N   UNL     1     -41.275-162.775 308.909  0.00  0.00    +0.000 N 
ATOM     12  H   UNL     1     -42.086-162.868 308.307  0.00  0.00    +0.000 HD
BRANCH  11  13
ATOM     13  C   UNL     1     -40.053-163.265 308.498  0.00  0.00    +0.000 A 
ATOM     14  C   UNL     1     -39.216-162.438 307.797  0.00  0.00    +0.000 A 
ATOM     15  F   UNL     1     -39.475-161.124 307.808  0.00  0.00    +0.000 F 
ATOM     16  C   UNL     1     -38.168-162.946 307.040  0.00  0.00    +0.000 A 
ATOM     17  C   UNL     1     -37.833-164.278 307.167  0.00  0.00    +0.000 A 
ATOM     18  C   UNL     1     -38.498-165.049 308.121  0.00  0.00    +0.000 A 
ATOM     19  C   UNL     1     -39.613-164.539 308.788  0.00  0.00    +0.000 A 
ATOM     20  F   UNL     1     -40.272-165.299 309.671  0.00  0.00    +0.000 F 
ENDBRANCH  11  13
ENDBRANCH   8   9
ENDBRANCH   1   8
BRANCH   2  21
ATOM     21  C   UNL     1     -41.451-158.854 309.089  0.00  0.00    +0.000 C 
BRANCH  21  22
ATOM     22  N   UNL     1     -42.772-158.712 308.518  0.00  0.00    +0.000 N 
ATOM     23  C   UNL     1     -43.334-157.608 307.943  0.00  0.00    +0.000 C 
ATOM     24  O   UNL     1     -44.540-157.585 307.756  0.00  0.00    +0.000 OA
ATOM     25  H   UNL     1     -43.445-159.432 308.748  0.00  0.00    +0.000 HD
BRANCH  23  26
ATOM     26  O   UNL     1     -42.462-156.599 307.681  0.00  0.00    +0.000 OA
BRANCH  26  27
ATOM     27  C   UNL     1     -42.052-156.281 306.306  0.00  0.00    +0.000 C 
ATOM     28  C   UNL     1     -42.431-154.826 306.085  0.00  0.00    +0.000 C 
ATOM     29  C   UNL     1     -40.557-156.542 306.033  0.00  0.00    +0.000 C 
ATOM     30  C   UNL     1     -42.855-157.124 305.268  0.00  0.00    +0.000 C 
ENDBRANCH  26  27
ENDBRANCH  23  26
ENDBRANCH  21  22
ENDBRANCH   2  21
TORSDOF 9
ENDMDL
