MODEL 1
REMARK VINA RESULT:     0.000      0.000      0.000
REMARK INTER + INTRA:          -2.014
REMARK INTER:                   0.000
REMARK INTRA:                  -2.014
REMARK UNBOUND:                -2.014
REMARK  Name = 
REMARK  8 active torsions:
REMARK  status: ('A' for Active; 'I' for Inactive)
REMARK    1  A    between atoms: C_1  and  C_2
REMARK    2  A    between atoms: C_2  and  C_3
REMARK    3  A    between atoms: C_3  and  O_4
REMARK    4  A    between atoms: O_4  and  C_5
REMARK    5  A    between atoms: C_5  and  C_7
REMARK    6  A    between atoms: N_9  and  C_10
REMARK    7  A    between atoms: C_10  and  C_11
REMARK    8  A    between atoms: N_13  and  C_14
REMARK                            x       y       z     vdW  Elec       q    Type
REMARK                         _______ _______ _______ _____ _____    ______ ____
ROOT
ATOM      1  C   UNL     1     -42.212-295.107  63.468  0.00  0.00    +0.000 A 
ATOM      2  C   UNL     1     -42.851-294.727  64.642  0.00  0.00    +0.000 A 
ATOM      3  N   UNL     1     -43.530-293.569  64.352  0.00  0.00    +0.000 N 
ATOM      4  N   UNL     1     -43.613-293.361  63.022  0.00  0.00    +0.000 NA
ATOM      5  C   UNL     1     -42.773-294.253  62.493  0.00  0.00    +0.000 A 
ATOM      6  N   UNL     1     -42.485-294.305  61.190  0.00  0.00    +0.000 N 
ATOM      7  H   UNL     1     -43.015-293.736  60.542  0.00  0.00    +0.000 HD
ATOM      8  H   UNL     1     -41.850-294.977  60.779  0.00  0.00    +0.000 HD
ENDROOT
BRANCH   1   9
ATOM      9  C   UNL     1     -41.105-296.033  63.346  0.00  0.00    +0.000 C 
ATOM     10  O   UNL     1     -41.090-296.929  62.491  0.00  0.00    +0.000 OA
BRANCH   9  11
ATOM     11  O   UNL     1     -40.082-295.796  64.207  0.00  0.00    +0.000 OA
BRANCH  11  12
ATOM     12  C   UNL     1     -39.150-294.743  63.871  0.00  0.00    +0.000 C 
BRANCH  12  14
ATOM     13  C   UNL     1     -39.645-293.781  66.191  0.00  0.00    +0.000 C 
ATOM     14  C   UNL     1     -38.597-294.050  65.123  0.00  0.00    +0.000 C 
ENDBRANCH  12  14
ENDBRANCH  11  12
ENDBRANCH   9  11
ENDBRANCH   1   9
BRANCH   3  15
ATOM     15  C   UNL     1     -44.096-292.616  65.302  0.00  0.00    +0.000 C 
BRANCH  15  16
ATOM     16  C   UNL     1     -44.048-291.142  64.890  0.00  0.00    +0.000 C 
ATOM     17  O   UNL     1     -45.096-290.482  64.868  0.00  0.00    +0.000 OA
ATOM     18  N   UNL     1     -42.883-290.442  64.678  0.00  0.00    +0.000 N 
ATOM     19  H   UNL     1     -43.063-289.490  64.367  0.00  0.00    +0.000 HD
BRANCH  18  20
ATOM     20  C   UNL     1     -41.477-290.871  64.675  0.00  0.00    +0.000 C 
ATOM     21  C   UNL     1     -40.952-290.973  63.248  0.00  0.00    +0.000 C 
ATOM     22  C   UNL     1     -39.459-291.106  63.053  0.00  0.00    +0.000 C 
ATOM     23  C   UNL     1     -38.646-290.192  63.947  0.00  0.00    +0.000 C 
ATOM     24  C   UNL     1     -39.139-290.172  65.393  0.00  0.00    +0.000 C 
ATOM     25  C   UNL     1     -40.639-290.002  65.596  0.00  0.00    +0.000 C 
ENDBRANCH  18  20
ENDBRANCH  15  16
ENDBRANCH   3  15
TORSDOF 7
ENDMDL
MODEL 2
REMARK VINA RESULT:     0.000     11.956     14.555
REMARK INTER + INTRA:          -2.013
REMARK INTER:                   0.000
REMARK INTRA:                  -2.013
REMARK UNBOUND:                -2.014
REMARK  Name = 
REMARK  8 active torsions:
REMARK  status: ('A' for Active; 'I' for Inactive)
REMARK    1  A    between atoms: C_1  and  C_2
REMARK    2  A    between atoms: C_2  and  C_3
REMARK    3  A    between atoms: C_3  and  O_4
REMARK    4  A    between atoms: O_4  and  C_5
REMARK    5  A    between atoms: C_5  and  C_7
REMARK    6  A    between atoms: N_9  and  C_10
REMARK    7  A    between atoms: C_10  and  C_11
REMARK    8  A    between atoms: N_13  and  C_14
REMARK                            x       y       z     vdW  Elec       q    Type
REMARK                         _______ _______ _______ _____ _____    ______ ____
ROOT
ATOM      1  C   UNL     1     -49.865-303.442  60.439  0.00  0.00    +0.000 A 
ATOM      2  C   UNL     1     -48.773-304.242  60.122  0.00  0.00    +0.000 A 
ATOM      3  N   UNL     1     -49.061-305.494  60.607  0.00  0.00    +0.000 N 
ATOM      4  N   UNL     1     -50.365-305.614  60.930  0.00  0.00    +0.000 NA
ATOM      5  C   UNL     1     -50.836-304.366  60.883  0.00  0.00    +0.000 A 
ATOM      6  N   UNL     1     -52.079-304.038  61.244  0.00  0.00    +0.000 N 
ATOM      7  H   UNL     1     -52.748-304.771  61.440  0.00  0.00    +0.000 HD
ATOM      8  H   UNL     1     -52.445-303.095  61.213  0.00  0.00    +0.000 HD
ENDROOT
BRANCH   1   9
ATOM      9  C   UNL     1     -49.896-301.995  60.471  0.00  0.00    +0.000 C 
ATOM     10  O   UNL     1     -50.813-301.347  59.947  0.00  0.00    +0.000 OA
BRANCH   9  11
ATOM     11  O   UNL     1     -48.873-301.429  61.162  0.00  0.00    +0.000 OA
BRANCH  11  12
ATOM     12  C   UNL     1     -48.971-301.397  62.603  0.00  0.00    +0.000 C 
BRANCH  12  14
ATOM     13  C   UNL     1     -46.678-302.536  62.627  0.00  0.00    +0.000 C 
ATOM     14  C   UNL     1     -47.593-301.506  63.271  0.00  0.00    +0.000 C 
ENDBRANCH  12  14
ENDBRANCH  11  12
ENDBRANCH   9  11
ENDBRANCH   1   9
BRANCH   3  15
ATOM     15  C   UNL     1     -48.130-306.601  60.804  0.00  0.00    +0.000 C 
BRANCH  15  16
ATOM     16  C   UNL     1     -48.401-307.505  62.010  0.00  0.00    +0.000 C 
ATOM     17  O   UNL     1     -48.525-308.726  61.839  0.00  0.00    +0.000 OA
ATOM     18  N   UNL     1     -48.371-307.073  63.315  0.00  0.00    +0.000 N 
ATOM     19  H   UNL     1     -48.623-307.813  63.966  0.00  0.00    +0.000 HD
BRANCH  18  20
ATOM     20  C   UNL     1     -48.197-305.732  63.892  0.00  0.00    +0.000 C 
ATOM     21  C   UNL     1     -49.531-305.185  64.386  0.00  0.00    +0.000 C 
ATOM     22  C   UNL     1     -49.507-303.962  65.274  0.00  0.00    +0.000 C 
ATOM     23  C   UNL     1     -48.424-303.999  66.332  0.00  0.00    +0.000 C 
ATOM     24  C   UNL     1     -47.073-304.470  65.794  0.00  0.00    +0.000 C 
ATOM     25  C   UNL     1     -47.087-305.724  64.929  0.00  0.00    +0.000 C 
ENDBRANCH  18  20
ENDBRANCH  15  16
ENDBRANCH   3  15
TORSDOF 7
ENDMDL
MODEL 3
REMARK VINA RESULT:     0.000      6.701      9.944
REMARK INTER + INTRA:          -2.013
REMARK INTER:                   0.000
REMARK INTRA:                  -2.013
REMARK UNBOUND:                -2.014
REMARK  Name = 
REMARK  8 active torsions:
REMARK  status: ('A' for Active; 'I' for Inactive)
REMARK    1  A    between atoms: C_1  and  C_2
REMARK    2  A    between atoms: C_2  and  C_3
REMARK    3  A    between atoms: C_3  and  O_4
REMARK    4  A    between atoms: O_4  and  C_5
REMARK    5  A    between atoms: C_5  and  C_7
REMARK    6  A    between atoms: N_9  and  C_10
REMARK    7  A    between atoms: C_10  and  C_11
REMARK    8  A    between atoms: N_13  and  C_14
REMARK                            x       y       z     vdW  Elec       q    Type
REMARK                         _______ _______ _______ _____ _____    ______ ____
ROOT
ATOM      1  C   UNL     1     -39.809-297.809  59.725  0.00  0.00    +0.000 A 
ATOM      2  C   UNL     1     -40.295-299.057  60.095  0.00  0.00    +0.000 A 
ATOM      3  N   UNL     1     -39.953-299.919  59.082  0.00  0.00    +0.000 N 
ATOM      4  N   UNL     1     -39.033-299.375  58.258  0.00  0.00    +0.000 NA
ATOM      5  C   UNL     1     -38.989-298.089  58.611  0.00  0.00    +0.000 A 
ATOM      6  N   UNL     1     -38.267-297.175  57.957  0.00  0.00    +0.000 N 
ATOM      7  H   UNL     1     -37.617-297.475  57.242  0.00  0.00    +0.000 HD
ATOM      8  H   UNL     1     -38.227-296.197  58.216  0.00  0.00    +0.000 HD
ENDROOT
BRANCH   1   9
ATOM      9  C   UNL     1     -40.217-296.528  60.263  0.00  0.00    +0.000 C 
ATOM     10  O   UNL     1     -39.394-295.665  60.598  0.00  0.00    +0.000 OA
BRANCH   9  11
ATOM     11  O   UNL     1     -41.562-296.346  60.315  0.00  0.00    +0.000 OA
BRANCH  11  12
ATOM     12  C   UNL     1     -42.237-295.973  59.093  0.00  0.00    +0.000 C 
BRANCH  12  14
ATOM     13  C   UNL     1     -43.770-297.979  59.517  0.00  0.00    +0.000 C 
ATOM     14  C   UNL     1     -43.661-296.543  59.032  0.00  0.00    +0.000 C 
ENDBRANCH  12  14
ENDBRANCH  11  12
ENDBRANCH   9  11
ENDBRANCH   1   9
BRANCH   3  15
ATOM     15  C   UNL     1     -40.487-301.255  58.840  0.00  0.00    +0.000 C 
BRANCH  15  16
ATOM     16  C   UNL     1     -40.633-301.669  57.373  0.00  0.00    +0.000 C 
ATOM     17  O   UNL     1     -40.094-302.713  56.979  0.00  0.00    +0.000 OA
ATOM     18  N   UNL     1     -41.456-301.032  56.474  0.00  0.00    +0.000 N 
ATOM     19  H   UNL     1     -41.378-301.428  55.540  0.00  0.00    +0.000 HD
BRANCH  18  20
ATOM     20  C   UNL     1     -42.279-299.820  56.598  0.00  0.00    +0.000 C 
ATOM     21  C   UNL     1     -41.617-298.648  55.884  0.00  0.00    +0.000 C 
ATOM     22  C   UNL     1     -42.446-297.407  55.645  0.00  0.00    +0.000 C 
ATOM     23  C   UNL     1     -43.857-297.700  55.177  0.00  0.00    +0.000 C 
ATOM     24  C   UNL     1     -44.532-298.822  55.964  0.00  0.00    +0.000 C 
ATOM     25  C   UNL     1     -43.714-300.089  56.176  0.00  0.00    +0.000 C 
ENDBRANCH  18  20
ENDBRANCH  15  16
ENDBRANCH   3  15
TORSDOF 7
ENDMDL
MODEL 4
REMARK VINA RESULT:     0.001      6.409      8.656
REMARK INTER + INTRA:          -2.012
REMARK INTER:                   0.000
REMARK INTRA:                  -2.012
REMARK UNBOUND:                -2.014
REMARK  Name = 
REMARK  8 active torsions:
REMARK  status: ('A' for Active; 'I' for Inactive)
REMARK    1  A    between atoms: C_1  and  C_2
REMARK    2  A    between atoms: C_2  and  C_3
REMARK    3  A    between atoms: C_3  and  O_4
REMARK    4  A    between atoms: O_4  and  C_5
REMARK    5  A    between atoms: C_5  and  C_7
REMARK    6  A    between atoms: N_9  and  C_10
REMARK    7  A    between atoms: C_10  and  C_11
REMARK    8  A    between atoms: N_13  and  C_14
REMARK                            x       y       z     vdW  Elec       q    Type
REMARK                         _______ _______ _______ _____ _____    ______ ____
ROOT
ATOM      1  C   UNL     1     -46.143-300.641  59.682  0.00  0.00    +0.000 A 
ATOM      2  C   UNL     1     -45.139-300.544  60.638  0.00  0.00    +0.000 A 
ATOM      3  N   UNL     1     -45.337-299.348  61.284  0.00  0.00    +0.000 N 
ATOM      4  N   UNL     1     -46.556-298.835  61.016  0.00  0.00    +0.000 NA
ATOM      5  C   UNL     1     -47.017-299.581  60.010  0.00  0.00    +0.000 A 
ATOM      6  N   UNL     1     -48.165-299.327  59.377  0.00  0.00    +0.000 N 
ATOM      7  H   UNL     1     -48.790-298.622  59.746  0.00  0.00    +0.000 HD
ATOM      8  H   UNL     1     -48.524-299.887  58.613  0.00  0.00    +0.000 HD
ENDROOT
BRANCH   1   9
ATOM      9  C   UNL     1     -46.158-301.515  58.528  0.00  0.00    +0.000 C 
ATOM     10  O   UNL     1     -47.155-302.186  58.225  0.00  0.00    +0.000 OA
BRANCH   9  11
ATOM     11  O   UNL     1     -45.015-301.491  57.794  0.00  0.00    +0.000 OA
BRANCH  11  12
ATOM     12  C   UNL     1     -44.833-300.394  56.871  0.00  0.00    +0.000 C 
BRANCH  12  14
ATOM     13  C   UNL     1     -42.588-300.000  58.038  0.00  0.00    +0.000 C 
ATOM     14  C   UNL     1     -43.353-300.013  56.724  0.00  0.00    +0.000 C 
ENDBRANCH  12  14
ENDBRANCH  11  12
ENDBRANCH   9  11
ENDBRANCH   1   9
BRANCH   3  15
ATOM     15  C   UNL     1     -44.393-298.643  62.145  0.00  0.00    +0.000 C 
BRANCH  15  16
ATOM     16  C   UNL     1     -44.432-297.113  62.078  0.00  0.00    +0.000 C 
ATOM     17  O   UNL     1     -44.595-296.463  63.119  0.00  0.00    +0.000 OA
ATOM     18  N   UNL     1     -44.147-296.387  60.944  0.00  0.00    +0.000 N 
ATOM     19  H   UNL     1     -44.273-295.389  61.091  0.00  0.00    +0.000 HD
BRANCH  18  20
ATOM     20  C   UNL     1     -43.856-296.809  59.566  0.00  0.00    +0.000 C 
ATOM     21  C   UNL     1     -45.066-296.576  58.669  0.00  0.00    +0.000 C 
ATOM     22  C   UNL     1     -44.863-296.665  57.174  0.00  0.00    +0.000 C 
ATOM     23  C   UNL     1     -43.596-295.989  56.691  0.00  0.00    +0.000 C 
ATOM     24  C   UNL     1     -42.378-296.306  57.558  0.00  0.00    +0.000 C 
ATOM     25  C   UNL     1     -42.567-296.182  59.065  0.00  0.00    +0.000 C 
ENDBRANCH  18  20
ENDBRANCH  15  16
ENDBRANCH   3  15
TORSDOF 7
ENDMDL
MODEL 5
REMARK VINA RESULT:     0.001      6.203      7.794
REMARK INTER + INTRA:          -2.012
REMARK INTER:                   0.000
REMARK INTRA:                  -2.012
REMARK UNBOUND:                -2.014
REMARK  Name = 
REMARK  8 active torsions:
REMARK  status: ('A' for Active; 'I' for Inactive)
REMARK    1  A    between atoms: C_1  and  C_2
REMARK    2  A    between atoms: C_2  and  C_3
REMARK    3  A    between atoms: C_3  and  O_4
REMARK    4  A    between atoms: O_4  and  C_5
REMARK    5  A    between atoms: C_5  and  C_7
REMARK    6  A    between atoms: N_9  and  C_10
REMARK    7  A    between atoms: C_10  and  C_11
REMARK    8  A    between atoms: N_13  and  C_14
REMARK                            x       y       z     vdW  Elec       q    Type
REMARK                         _______ _______ _______ _____ _____    ______ ____
ROOT
ATOM      1  C   UNL     1     -41.280-300.250  61.639  0.00  0.00    +0.000 A 
ATOM      2  C   UNL     1     -40.299-301.102  62.131  0.00  0.00    +0.000 A 
ATOM      3  N   UNL     1     -39.889-300.566  63.328  0.00  0.00    +0.000 N 
ATOM      4  N   UNL     1     -40.745-299.620  63.766  0.00  0.00    +0.000 NA
ATOM      5  C   UNL     1     -41.548-299.390  62.726  0.00  0.00    +0.000 A 
ATOM      6  N   UNL     1     -42.479-298.432  62.717  0.00  0.00    +0.000 N 
ATOM      7  H   UNL     1     -42.687-297.936  63.574  0.00  0.00    +0.000 HD
ATOM      8  H   UNL     1     -43.093-298.249  61.934  0.00  0.00    +0.000 HD
ENDROOT
BRANCH   1   9
ATOM      9  C   UNL     1     -41.754-300.175  60.273  0.00  0.00    +0.000 C 
ATOM     10  O   UNL     1     -42.962-300.134  59.999  0.00  0.00    +0.000 OA
BRANCH   9  11
ATOM     11  O   UNL     1     -40.768-300.103  59.342  0.00  0.00    +0.000 OA
BRANCH  11  12
ATOM     12  C   UNL     1     -40.144-298.818  59.123  0.00  0.00    +0.000 C 
BRANCH  12  14
ATOM     13  C   UNL     1     -37.917-300.007  59.544  0.00  0.00    +0.000 C 
ATOM     14  C   UNL     1     -38.666-298.960  58.736  0.00  0.00    +0.000 C 
ENDBRANCH  12  14
ENDBRANCH  11  12
ENDBRANCH   9  11
ENDBRANCH   1   9
BRANCH   3  15
ATOM     15  C   UNL     1     -38.685-300.902  64.080  0.00  0.00    +0.000 C 
BRANCH  15  16
ATOM     16  C   UNL     1     -38.015-299.749  64.834  0.00  0.00    +0.000 C 
ATOM     17  O   UNL     1     -37.807-299.857  66.050  0.00  0.00    +0.000 OA
ATOM     18  N   UNL     1     -37.484-298.638  64.220  0.00  0.00    +0.000 N 
ATOM     19  H   UNL     1     -37.127-297.966  64.896  0.00  0.00    +0.000 HD
BRANCH  18  20
ATOM     20  C   UNL     1     -37.491-298.205  62.816  0.00  0.00    +0.000 C 
ATOM     21  C   UNL     1     -38.499-297.082  62.606  0.00  0.00    +0.000 C 
ATOM     22  C   UNL     1     -38.435-296.309  61.309  0.00  0.00    +0.000 C 
ATOM     23  C   UNL     1     -37.025-295.963  60.876  0.00  0.00    +0.000 C 
ATOM     24  C   UNL     1     -36.050-297.131  61.015  0.00  0.00    +0.000 C 
ATOM     25  C   UNL     1     -36.084-297.891  62.335  0.00  0.00    +0.000 C 
ENDBRANCH  18  20
ENDBRANCH  15  16
ENDBRANCH   3  15
TORSDOF 7
ENDMDL
MODEL 6
REMARK VINA RESULT:     0.001     11.662     14.369
REMARK INTER + INTRA:          -2.012
REMARK INTER:                   0.000
REMARK INTRA:                  -2.012
REMARK UNBOUND:                -2.014
REMARK  Name = 
REMARK  8 active torsions:
REMARK  status: ('A' for Active; 'I' for Inactive)
REMARK    1  A    between atoms: C_1  and  C_2
REMARK    2  A    between atoms: C_2  and  C_3
REMARK    3  A    between atoms: C_3  and  O_4
REMARK    4  A    between atoms: O_4  and  C_5
REMARK    5  A    between atoms: C_5  and  C_7
REMARK    6  A    between atoms: N_9  and  C_10
REMARK    7  A    between atoms: C_10  and  C_11
REMARK    8  A    between atoms: N_13  and  C_14
REMARK                            x       y       z     vdW  Elec       q    Type
REMARK                         _______ _______ _______ _____ _____    ______ ____
ROOT
ATOM      1  C   UNL     1     -46.453-304.260  63.010  0.00  0.00    +0.000 A 
ATOM      2  C   UNL     1     -45.596-304.989  63.826  0.00  0.00    +0.000 A 
ATOM      3  N   UNL     1     -44.321-304.663  63.433  0.00  0.00    +0.000 N 
ATOM      4  N   UNL     1     -44.309-303.566  62.647  0.00  0.00    +0.000 NA
ATOM      5  C   UNL     1     -45.593-303.358  62.347  0.00  0.00    +0.000 A 
ATOM      6  N   UNL     1     -46.001-302.417  61.492  0.00  0.00    +0.000 N 
ATOM      7  H   UNL     1     -45.335-301.737  61.148  0.00  0.00    +0.000 HD
ATOM      8  H   UNL     1     -46.972-302.251  61.257  0.00  0.00    +0.000 HD
ENDROOT
BRANCH   1   9
ATOM      9  C   UNL     1     -47.859-304.519  62.783  0.00  0.00    +0.000 C 
ATOM     10  O   UNL     1     -48.707-303.616  62.819  0.00  0.00    +0.000 OA
BRANCH   9  11
ATOM     11  O   UNL     1     -48.148-305.811  62.480  0.00  0.00    +0.000 OA
BRANCH  11  12
ATOM     12  C   UNL     1     -47.918-306.251  61.122  0.00  0.00    +0.000 C 
BRANCH  12  14
ATOM     13  C   UNL     1     -46.512-308.133  62.139  0.00  0.00    +0.000 C 
ATOM     14  C   UNL     1     -47.507-307.729  61.063  0.00  0.00    +0.000 C 
ENDBRANCH  12  14
ENDBRANCH  11  12
ENDBRANCH   9  11
ENDBRANCH   1   9
BRANCH   3  15
ATOM     15  C   UNL     1     -43.088-305.373  63.757  0.00  0.00    +0.000 C 
BRANCH  15  16
ATOM     16  C   UNL     1     -42.012-305.390  62.667  0.00  0.00    +0.000 C 
ATOM     17  O   UNL     1     -40.873-304.983  62.931  0.00  0.00    +0.000 OA
ATOM     18  N   UNL     1     -42.181-305.974  61.433  0.00  0.00    +0.000 N 
ATOM     19  H   UNL     1     -41.368-305.839  60.835  0.00  0.00    +0.000 HD
BRANCH  18  20
ATOM     20  C   UNL     1     -43.354-306.597  60.803  0.00  0.00    +0.000 C 
ATOM     21  C   UNL     1     -43.962-305.663  59.763  0.00  0.00    +0.000 C 
ATOM     22  C   UNL     1     -44.981-306.239  58.807  0.00  0.00    +0.000 C 
ATOM     23  C   UNL     1     -44.604-307.604  58.267  0.00  0.00    +0.000 C 
ATOM     24  C   UNL     1     -44.077-308.551  59.344  0.00  0.00    +0.000 C 
ATOM     25  C   UNL     1     -43.023-307.987  60.288  0.00  0.00    +0.000 C 
ENDBRANCH  18  20
ENDBRANCH  15  16
ENDBRANCH   3  15
TORSDOF 7
ENDMDL
MODEL 7
REMARK VINA RESULT:     0.002      5.368      7.710
REMARK INTER + INTRA:          -2.011
REMARK INTER:                   0.000
REMARK INTRA:                  -2.011
REMARK UNBOUND:                -2.014
REMARK  Name = 
REMARK  8 active torsions:
REMARK  status: ('A' for Active; 'I' for Inactive)
REMARK    1  A    between atoms: C_1  and  C_2
REMARK    2  A    between atoms: C_2  and  C_3
REMARK    3  A    between atoms: C_3  and  O_4
REMARK    4  A    between atoms: O_4  and  C_5
REMARK    5  A    between atoms: C_5  and  C_7
REMARK    6  A    between atoms: N_9  and  C_10
REMARK    7  A    between atoms: C_10  and  C_11
REMARK    8  A    between atoms: N_13  and  C_14
REMARK                            x       y       z     vdW  Elec       q    Type
REMARK                         _______ _______ _______ _____ _____    ______ ____
ROOT
ATOM      1  C   UNL     1     -46.062-294.874  61.628  0.00  0.00    +0.000 A 
ATOM      2  C   UNL     1     -44.811-294.279  61.524  0.00  0.00    +0.000 A 
ATOM      3  N   UNL     1     -44.893-293.392  60.478  0.00  0.00    +0.000 N 
ATOM      4  N   UNL     1     -46.174-293.167  60.118  0.00  0.00    +0.000 NA
ATOM      5  C   UNL     1     -46.872-294.099  60.770  0.00  0.00    +0.000 A 
ATOM      6  N   UNL     1     -48.183-294.284  60.600  0.00  0.00    +0.000 N 
ATOM      7  H   UNL     1     -48.712-293.614  60.056  0.00  0.00    +0.000 HD
ATOM      8  H   UNL     1     -48.722-294.987  61.089  0.00  0.00    +0.000 HD
ENDROOT
BRANCH   1   9
ATOM      9  C   UNL     1     -46.378-296.108  62.318  0.00  0.00    +0.000 C 
ATOM     10  O   UNL     1     -47.352-296.204  63.078  0.00  0.00    +0.000 OA
BRANCH   9  11
ATOM     11  O   UNL     1     -45.553-297.144  62.016  0.00  0.00    +0.000 OA
BRANCH  11  12
ATOM     12  C   UNL     1     -45.789-297.854  60.780  0.00  0.00    +0.000 C 
BRANCH  12  14
ATOM     13  C   UNL     1     -43.331-297.395  60.232  0.00  0.00    +0.000 C 
ATOM     14  C   UNL     1     -44.485-298.382  60.168  0.00  0.00    +0.000 C 
ENDBRANCH  12  14
ENDBRANCH  11  12
ENDBRANCH   9  11
ENDBRANCH   1   9
BRANCH   3  15
ATOM     15  C   UNL     1     -43.787-292.753  59.773  0.00  0.00    +0.000 C 
BRANCH  15  16
ATOM     16  C   UNL     1     -43.987-292.517  58.274  0.00  0.00    +0.000 C 
ATOM     17  O   UNL     1     -43.854-291.375  57.814  0.00  0.00    +0.000 OA
ATOM     18  N   UNL     1     -44.165-293.527  57.356  0.00  0.00    +0.000 N 
ATOM     19  H   UNL     1     -44.327-293.164  56.419  0.00  0.00    +0.000 HD
BRANCH  18  20
ATOM     20  C   UNL     1     -44.311-294.980  57.523  0.00  0.00    +0.000 C 
ATOM     21  C   UNL     1     -45.766-295.395  57.344  0.00  0.00    +0.000 C 
ATOM     22  C   UNL     1     -46.064-296.868  57.182  0.00  0.00    +0.000 C 
ATOM     23  C   UNL     1     -45.098-297.587  56.262  0.00  0.00    +0.000 C 
ATOM     24  C   UNL     1     -43.638-297.218  56.518  0.00  0.00    +0.000 C 
ATOM     25  C   UNL     1     -43.325-295.732  56.645  0.00  0.00    +0.000 C 
ENDBRANCH  18  20
ENDBRANCH  15  16
ENDBRANCH   3  15
TORSDOF 7
ENDMDL
MODEL 8
REMARK VINA RESULT:     0.002     11.238     13.950
REMARK INTER + INTRA:          -2.011
REMARK INTER:                   0.000
REMARK INTRA:                  -2.011
REMARK UNBOUND:                -2.014
REMARK  Name = 
REMARK  8 active torsions:
REMARK  status: ('A' for Active; 'I' for Inactive)
REMARK    1  A    between atoms: C_1  and  C_2
REMARK    2  A    between atoms: C_2  and  C_3
REMARK    3  A    between atoms: C_3  and  O_4
REMARK    4  A    between atoms: O_4  and  C_5
REMARK    5  A    between atoms: C_5  and  C_7
REMARK    6  A    between atoms: N_9  and  C_10
REMARK    7  A    between atoms: C_10  and  C_11
REMARK    8  A    between atoms: N_13  and  C_14
REMARK                            x       y       z     vdW  Elec       q    Type
REMARK                         _______ _______ _______ _____ _____    ______ ____
ROOT
ATOM      1  C   UNL     1     -47.998-302.233  61.091  0.00  0.00    +0.000 A 
ATOM      2  C   UNL     1     -48.512-302.672  62.305  0.00  0.00    +0.000 A 
ATOM      3  N   UNL     1     -47.429-302.916  63.115  0.00  0.00    +0.000 N 
ATOM      4  N   UNL     1     -46.300-302.378  62.610  0.00  0.00    +0.000 NA
ATOM      5  C   UNL     1     -46.630-302.018  61.368  0.00  0.00    +0.000 A 
ATOM      6  N   UNL     1     -45.749-301.534  60.488  0.00  0.00    +0.000 N 
ATOM      7  H   UNL     1     -44.815-301.301  60.798  0.00  0.00    +0.000 HD
ATOM      8  H   UNL     1     -45.989-301.258  59.544  0.00  0.00    +0.000 HD
ENDROOT
BRANCH   1   9
ATOM      9  C   UNL     1     -48.691-302.197  59.821  0.00  0.00    +0.000 C 
ATOM     10  O   UNL     1     -48.652-301.205  59.079  0.00  0.00    +0.000 OA
BRANCH   9  11
ATOM     11  O   UNL     1     -49.332-303.351  59.501  0.00  0.00    +0.000 OA
BRANCH  11  12
ATOM     12  C   UNL     1     -48.541-304.431  58.958  0.00  0.00    +0.000 C 
BRANCH  12  14
ATOM     13  C   UNL     1     -49.537-305.882  60.817  0.00  0.00    +0.000 C 
ATOM     14  C   UNL     1     -49.095-305.804  59.365  0.00  0.00    +0.000 C 
ENDBRANCH  12  14
ENDBRANCH  11  12
ENDBRANCH   9  11
ENDBRANCH   1   9
BRANCH   3  15
ATOM     15  C   UNL     1     -47.413-303.672  64.363  0.00  0.00    +0.000 C 
BRANCH  15  16
ATOM     16  C   UNL     1     -46.147-304.489  64.641  0.00  0.00    +0.000 C 
ATOM     17  O   UNL     1     -45.531-304.314  65.701  0.00  0.00    +0.000 OA
ATOM     18  N   UNL     1     -45.716-305.528  63.849  0.00  0.00    +0.000 N 
ATOM     19  H   UNL     1     -44.832-305.912  64.176  0.00  0.00    +0.000 HD
BRANCH  18  20
ATOM     20  C   UNL     1     -46.217-306.051  62.570  0.00  0.00    +0.000 C 
ATOM     21  C   UNL     1     -45.317-305.610  61.422  0.00  0.00    +0.000 C 
ATOM     22  C   UNL     1     -45.496-306.291  60.084  0.00  0.00    +0.000 C 
ATOM     23  C   UNL     1     -45.682-307.791  60.185  0.00  0.00    +0.000 C 
ATOM     24  C   UNL     1     -46.655-308.204  61.288  0.00  0.00    +0.000 C 
ATOM     25  C   UNL     1     -46.455-307.549  62.649  0.00  0.00    +0.000 C 
ENDBRANCH  18  20
ENDBRANCH  15  16
ENDBRANCH   3  15
TORSDOF 7
ENDMDL
MODEL 9
REMARK VINA RESULT:     0.002      8.637     10.606
REMARK INTER + INTRA:          -2.011
REMARK INTER:                   0.000
REMARK INTRA:                  -2.011
REMARK UNBOUND:                -2.014
REMARK  Name = 
REMARK  8 active torsions:
REMARK  status: ('A' for Active; 'I' for Inactive)
REMARK    1  A    between atoms: C_1  and  C_2
REMARK    2  A    between atoms: C_2  and  C_3
REMARK    3  A    between atoms: C_3  and  O_4
REMARK    4  A    between atoms: O_4  and  C_5
REMARK    5  A    between atoms: C_5  and  C_7
REMARK    6  A    between atoms: N_9  and  C_10
REMARK    7  A    between atoms: C_10  and  C_11
REMARK    8  A    between atoms: N_13  and  C_14
REMARK                            x       y       z     vdW  Elec       q    Type
REMARK                         _______ _______ _______ _____ _____    ______ ____
ROOT
ATOM      1  C   UNL     1     -45.009-302.737  58.149  0.00  0.00    +0.000 A 
ATOM      2  C   UNL     1     -44.373-302.575  59.374  0.00  0.00    +0.000 A 
ATOM      3  N   UNL     1     -45.369-302.484  60.315  0.00  0.00    +0.000 N 
ATOM      4  N   UNL     1     -46.559-302.878  59.818  0.00  0.00    +0.000 NA
ATOM      5  C   UNL     1     -46.355-302.976  58.502  0.00  0.00    +0.000 A 
ATOM      6  N   UNL     1     -47.328-303.243  57.628  0.00  0.00    +0.000 N 
ATOM      7  H   UNL     1     -48.241-303.516  57.970  0.00  0.00    +0.000 HD
ATOM      8  H   UNL     1     -47.184-303.319  56.629  0.00  0.00    +0.000 HD
ENDROOT
BRANCH   1   9
ATOM      9  C   UNL     1     -44.431-302.520  56.839  0.00  0.00    +0.000 C 
ATOM     10  O   UNL     1     -44.577-303.332  55.914  0.00  0.00    +0.000 OA
BRANCH   9  11
ATOM     11  O   UNL     1     -43.772-301.340  56.708  0.00  0.00    +0.000 OA
BRANCH  11  12
ATOM     12  C   UNL     1     -44.560-300.151  56.477  0.00  0.00    +0.000 C 
BRANCH  12  14
ATOM     13  C   UNL     1     -43.346-299.148  58.495  0.00  0.00    +0.000 C 
ATOM     14  C   UNL     1     -43.917-298.908  57.107  0.00  0.00    +0.000 C 
ENDBRANCH  12  14
ENDBRANCH  11  12
ENDBRANCH   9  11
ENDBRANCH   1   9
BRANCH   3  15
ATOM     15  C   UNL     1     -45.245-302.007  61.689  0.00  0.00    +0.000 C 
BRANCH  15  16
ATOM     16  C   UNL     1     -46.446-301.239  62.248  0.00  0.00    +0.000 C 
ATOM     17  O   UNL     1     -46.974-301.618  63.302  0.00  0.00    +0.000 OA
ATOM     18  N   UNL     1     -46.901-300.047  61.733  0.00  0.00    +0.000 N 
ATOM     19  H   UNL     1     -47.736-299.719  62.213  0.00  0.00    +0.000 HD
BRANCH  18  20
ATOM     20  C   UNL     1     -46.491-299.278  60.549  0.00  0.00    +0.000 C 
ATOM     21  C   UNL     1     -47.506-299.446  59.424  0.00  0.00    +0.000 C 
ATOM     22  C   UNL     1     -47.416-298.503  58.246  0.00  0.00    +0.000 C 
ATOM     23  C   UNL     1     -47.159-297.062  58.638  0.00  0.00    +0.000 C 
ATOM     24  C   UNL     1     -46.076-296.914  59.706  0.00  0.00    +0.000 C 
ATOM     25  C   UNL     1     -46.184-297.836  60.914  0.00  0.00    +0.000 C 
ENDBRANCH  18  20
ENDBRANCH  15  16
ENDBRANCH   3  15
TORSDOF 7
ENDMDL
MODEL 10
REMARK VINA RESULT:     0.002     10.902     12.362
REMARK INTER + INTRA:          -2.010
REMARK INTER:                   0.000
REMARK INTRA:                  -2.010
REMARK UNBOUND:                -2.014
REMARK  Name = 
REMARK  8 active torsions:
REMARK  status: ('A' for Active; 'I' for Inactive)
REMARK    1  A    between atoms: C_1  and  C_2
REMARK    2  A    between atoms: C_2  and  C_3
REMARK    3  A    between atoms: C_3  and  O_4
REMARK    4  A    between atoms: O_4  and  C_5
REMARK    5  A    between atoms: C_5  and  C_7
REMARK    6  A    between atoms: N_9  and  C_10
REMARK    7  A    between atoms: C_10  and  C_11
REMARK    8  A    between atoms: N_13  and  C_14
REMARK                            x       y       z     vdW  Elec       q    Type
REMARK                         _______ _______ _______ _____ _____    ______ ____
ROOT
ATOM      1  C   UNL     1     -44.770-302.253  55.015  0.00  0.00    +0.000 A 
ATOM      2  C   UNL     1     -44.871-301.264  55.987  0.00  0.00    +0.000 A 
ATOM      3  N   UNL     1     -45.008-300.075  55.313  0.00  0.00    +0.000 N 
ATOM      4  N   UNL     1     -45.304-300.273  54.012  0.00  0.00    +0.000 NA
ATOM      5  C   UNL     1     -45.105-301.579  53.821  0.00  0.00    +0.000 A 
ATOM      6  N   UNL     1     -45.191-302.164  52.623  0.00  0.00    +0.000 N 
ATOM      7  H   UNL     1     -45.549-301.637  51.838  0.00  0.00    +0.000 HD
ATOM      8  H   UNL     1     -45.042-303.153  52.467  0.00  0.00    +0.000 HD
ENDROOT
BRANCH   1   9
ATOM      9  C   UNL     1     -44.258-303.595  55.197  0.00  0.00    +0.000 C 
ATOM     10  O   UNL     1     -44.850-304.589  54.752  0.00  0.00    +0.000 OA
BRANCH   9  11
ATOM     11  O   UNL     1     -43.065-303.655  55.842  0.00  0.00    +0.000 OA
BRANCH  11  12
ATOM     12  C   UNL     1     -41.871-303.377  55.076  0.00  0.00    +0.000 C 
BRANCH  12  14
ATOM     13  C   UNL     1     -41.314-301.640  56.873  0.00  0.00    +0.000 C 
ATOM     14  C   UNL     1     -40.786-302.713  55.934  0.00  0.00    +0.000 C 
ENDBRANCH  12  14
ENDBRANCH  11  12
ENDBRANCH   9  11
ENDBRANCH   1   9
BRANCH   3  15
ATOM     15  C   UNL     1     -44.843-298.730  55.854  0.00  0.00    +0.000 C 
BRANCH  15  16
ATOM     16  C   UNL     1     -44.242-297.689  54.905  0.00  0.00    +0.000 C 
ATOM     17  O   UNL     1     -44.855-296.635  54.690  0.00  0.00    +0.000 OA
ATOM     18  N   UNL     1     -42.974-297.776  54.376  0.00  0.00    +0.000 N 
ATOM     19  H   UNL     1     -42.778-297.012  53.734  0.00  0.00    +0.000 HD
BRANCH  18  20
ATOM     20  C   UNL     1     -41.955-298.831  54.459  0.00  0.00    +0.000 C 
ATOM     21  C   UNL     1     -41.889-299.616  53.154  0.00  0.00    +0.000 C 
ATOM     22  C   UNL     1     -40.708-300.534  52.942  0.00  0.00    +0.000 C 
ATOM     23  C   UNL     1     -39.385-299.932  53.369  0.00  0.00    +0.000 C 
ATOM     24  C   UNL     1     -39.455-299.224  54.722  0.00  0.00    +0.000 C 
ATOM     25  C   UNL     1     -40.624-298.269  54.927  0.00  0.00    +0.000 C 
ENDBRANCH  18  20
ENDBRANCH  15  16
ENDBRANCH   3  15
TORSDOF 7
ENDMDL
