MODEL 1
REMARK VINA RESULT:    -9.021      0.000      0.000
REMARK INTER + INTRA:         -15.114
REMARK INTER:                 -13.240
REMARK INTRA:                  -1.874
REMARK UNBOUND:                -1.874
REMARK  Name = 
REMARK  10 active torsions:
REMARK  status: ('A' for Active; 'I' for Inactive)
REMARK    1  A    between atoms: C_1  and  C_2
REMARK    2  A    between atoms: C_2  and  O_3
REMARK    3  A    between atoms: O_3  and  C_4
REMARK    4  A    between atoms: C_7  and  C_8
REMARK    5  A    between atoms: C_8  and  C_10
REMARK    6  A    between atoms: C_10  and  C_11
REMARK    7  A    between atoms: C_11  and  C_12
REMARK    8  A    between atoms: C_18  and  C_19
REMARK    9  A    between atoms: C_25  and  O_26
REMARK   10  A    between atoms: O_26  and  C_27
REMARK                            x       y       z     vdW  Elec       q    Type
REMARK                         _______ _______ _______ _____ _____    ______ ____
ROOT
ATOM      1  C   UNL     1      99.497 108.821 127.806  0.00  0.00    +0.000 C 
ENDROOT
BRANCH   1   2
ATOM      2  C   UNL     1      99.585 108.047 126.430  0.00  0.00    +0.000 C 
ATOM      3  O   UNL     1      99.789 106.832 126.454  0.00  0.00    +0.000 OA
BRANCH   2   7
ATOM      4  C   UNL     1      98.115 110.363 122.933  0.00  0.00    +0.000 A 
ATOM      5  C   UNL     1      98.924 111.005 123.922  0.00  0.00    +0.000 A 
ATOM      6  C   UNL     1      99.701 110.242 124.959  0.00  0.00    +0.000 A 
ATOM      7  C   UNL     1      99.676 108.804 125.047  0.00  0.00    +0.000 A 
ATOM      8  C   UNL     1      99.049 108.195 123.980  0.00  0.00    +0.000 A 
ATOM      9  C   UNL     1      98.309 108.938 122.988  0.00  0.00    +0.000 A 
BRANCH   9  10
ATOM     10  O   UNL     1      97.719 107.952 122.234  0.00  0.00    +0.000 OA
ATOM     11  C   UNL     1      96.467 107.776 122.742  0.00  0.00    +0.000 C 
ENDBRANCH   9  10
BRANCH   4  12
ATOM     12  O   UNL     1      97.262 111.156 122.102  0.00  0.00    +0.000 OA
BRANCH  12  14
ATOM     13  C   UNL     1      95.252 112.904 123.227  0.00  0.00    +0.000 C 
ATOM     14  C   UNL     1      95.857 111.896 122.123  0.00  0.00    +0.000 C 
ENDBRANCH  12  14
ENDBRANCH   4  12
ENDBRANCH   2   7
ENDBRANCH   1   2
BRANCH   1  15
ATOM     15  C   UNL     1     100.740 109.093 128.685  0.00  0.00    +0.000 C 
BRANCH  15  16
ATOM     16  C   UNL     1     102.137 109.051 128.049  0.00  0.00    +0.000 C 
ATOM     17  O   UNL     1     102.812 108.058 128.101  0.00  0.00    +0.000 OA
ATOM     18  N   UNL     1     102.480 110.216 127.357  0.00  0.00    +0.000 N 
ATOM     19  C   UNL     1     102.086 111.498 127.733  0.00  0.00    +0.000 C 
ATOM     20  C   UNL     1     102.505 112.553 126.791  0.00  0.00    +0.000 C 
ATOM     21  C   UNL     1     103.768 111.924 126.243  0.00  0.00    +0.000 C 
ATOM     22  C   UNL     1     103.647 110.383 126.536  0.00  0.00    +0.000 C 
BRANCH  22  23
ATOM     23  C   UNL     1     103.383 109.725 125.279  0.00  0.00    +0.000 A 
ATOM     24  C   UNL     1     103.675 108.452 124.894  0.00  0.00    +0.000 A 
ATOM     25  C   UNL     1     103.355 108.425 123.531  0.00  0.00    +0.000 A 
ATOM     26  C   UNL     1     102.849 109.663 123.204  0.00  0.00    +0.000 A 
ATOM     27  O   UNL     1     102.874 110.470 124.276  0.00  0.00    +0.000 OA
ENDBRANCH  22  23
ENDBRANCH  15  16
ENDBRANCH   1  15
TORSDOF 8
ENDMDL
MODEL 2
REMARK VINA RESULT:    -8.595      1.681      2.431
REMARK INTER + INTRA:         -14.489
REMARK INTER:                 -12.808
REMARK INTRA:                  -1.680
REMARK UNBOUND:                -1.874
REMARK  Name = 
REMARK  10 active torsions:
REMARK  status: ('A' for Active; 'I' for Inactive)
REMARK    1  A    between atoms: C_1  and  C_2
REMARK    2  A    between atoms: C_2  and  O_3
REMARK    3  A    between atoms: O_3  and  C_4
REMARK    4  A    between atoms: C_7  and  C_8
REMARK    5  A    between atoms: C_8  and  C_10
REMARK    6  A    between atoms: C_10  and  C_11
REMARK    7  A    between atoms: C_11  and  C_12
REMARK    8  A    between atoms: C_18  and  C_19
REMARK    9  A    between atoms: C_25  and  O_26
REMARK   10  A    between atoms: O_26  and  C_27
REMARK                            x       y       z     vdW  Elec       q    Type
REMARK                         _______ _______ _______ _____ _____    ______ ____
ROOT
ATOM      1  C   UNL     1      99.512 108.592 127.492  0.00  0.00    +0.000 C 
ENDROOT
BRANCH   1   2
ATOM      2  C   UNL     1      99.625 107.426 126.430  0.00  0.00    +0.000 C 
ATOM      3  O   UNL     1      99.877 106.289 126.834  0.00  0.00    +0.000 OA
BRANCH   2   7
ATOM      4  C   UNL     1      98.068 107.784 122.283  0.00  0.00    +0.000 A 
ATOM      5  C   UNL     1      98.382 108.963 123.029  0.00  0.00    +0.000 A 
ATOM      6  C   UNL     1      99.181 108.932 124.302  0.00  0.00    +0.000 A 
ATOM      7  C   UNL     1      99.679 107.709 124.877  0.00  0.00    +0.000 A 
ATOM      8  C   UNL     1      99.535 106.611 124.055  0.00  0.00    +0.000 A 
ATOM      9  C   UNL     1      98.767 106.653 122.833  0.00  0.00    +0.000 A 
BRANCH   9  10
ATOM     10  O   UNL     1      98.739 105.338 122.436  0.00  0.00    +0.000 OA
ATOM     11  C   UNL     1      97.772 104.731 123.180  0.00  0.00    +0.000 C 
ENDBRANCH   9  10
BRANCH   4  12
ATOM     12  O   UNL     1      97.150 107.870 121.189  0.00  0.00    +0.000 OA
BRANCH  12  14
ATOM     13  C   UNL     1      95.753 105.438 120.487  0.00  0.00    +0.000 C 
ATOM     14  C   UNL     1      96.023 107.027 120.451  0.00  0.00    +0.000 C 
ENDBRANCH  12  14
ENDBRANCH   4  12
ENDBRANCH   2   7
ENDBRANCH   1   2
BRANCH   1  15
ATOM     15  C   UNL     1     100.662 108.939 128.468  0.00  0.00    +0.000 C 
BRANCH  15  16
ATOM     16  C   UNL     1     102.102 109.006 127.941  0.00  0.00    +0.000 C 
ATOM     17  O   UNL     1     102.837 108.060 128.022  0.00  0.00    +0.000 OA
ATOM     18  N   UNL     1     102.417 110.211 127.305  0.00  0.00    +0.000 N 
ATOM     19  C   UNL     1     101.909 111.453 127.679  0.00  0.00    +0.000 C 
ATOM     20  C   UNL     1     102.325 112.560 126.797  0.00  0.00    +0.000 C 
ATOM     21  C   UNL     1     103.666 112.032 126.335  0.00  0.00    +0.000 C 
ATOM     22  C   UNL     1     103.629 110.478 126.582  0.00  0.00    +0.000 C 
BRANCH  22  23
ATOM     23  C   UNL     1     103.506 109.840 125.293  0.00  0.00    +0.000 A 
ATOM     24  C   UNL     1     102.549 110.003 124.337  0.00  0.00    +0.000 A 
ATOM     25  C   UNL     1     102.836 109.010 123.392  0.00  0.00    +0.000 A 
ATOM     26  C   UNL     1     103.970 108.355 123.819  0.00  0.00    +0.000 A 
ATOM     27  O   UNL     1     104.379 108.857 124.994  0.00  0.00    +0.000 OA
ENDBRANCH  22  23
ENDBRANCH  15  16
ENDBRANCH   1  15
TORSDOF 8
ENDMDL
MODEL 3
REMARK VINA RESULT:    -8.379      2.798      7.584
REMARK INTER + INTRA:         -14.172
REMARK INTER:                 -13.034
REMARK INTRA:                  -1.138
REMARK UNBOUND:                -1.874
REMARK  Name = 
REMARK  10 active torsions:
REMARK  status: ('A' for Active; 'I' for Inactive)
REMARK    1  A    between atoms: C_1  and  C_2
REMARK    2  A    between atoms: C_2  and  O_3
REMARK    3  A    between atoms: O_3  and  C_4
REMARK    4  A    between atoms: C_7  and  C_8
REMARK    5  A    between atoms: C_8  and  C_10
REMARK    6  A    between atoms: C_10  and  C_11
REMARK    7  A    between atoms: C_11  and  C_12
REMARK    8  A    between atoms: C_18  and  C_19
REMARK    9  A    between atoms: C_25  and  O_26
REMARK   10  A    between atoms: O_26  and  C_27
REMARK                            x       y       z     vdW  Elec       q    Type
REMARK                         _______ _______ _______ _____ _____    ______ ____
ROOT
ATOM      1  C   UNL     1     100.383 109.346 124.300  0.00  0.00    +0.000 C 
ENDROOT
BRANCH   1   2
ATOM      2  C   UNL     1     101.783 108.652 124.546  0.00  0.00    +0.000 C 
ATOM      3  O   UNL     1     102.591 108.622 123.617  0.00  0.00    +0.000 OA
BRANCH   2   7
ATOM      4  C   UNL     1     101.102 107.052 128.637  0.00  0.00    +0.000 A 
ATOM      5  C   UNL     1     100.880 106.215 127.499  0.00  0.00    +0.000 A 
ATOM      6  C   UNL     1     101.363 106.569 126.120  0.00  0.00    +0.000 A 
ATOM      7  C   UNL     1     102.075 107.789 125.836  0.00  0.00    +0.000 A 
ATOM      8  C   UNL     1     102.446 108.490 126.964  0.00  0.00    +0.000 A 
ATOM      9  C   UNL     1     101.977 108.139 128.284  0.00  0.00    +0.000 A 
BRANCH   9  10
ATOM     10  O   UNL     1     102.432 109.175 129.063  0.00  0.00    +0.000 OA
ATOM     11  C   UNL     1     101.451 110.121 129.057  0.00  0.00    +0.000 C 
ENDBRANCH   9  10
BRANCH   4  12
ATOM     12  O   UNL     1     100.453 106.742 129.873  0.00  0.00    +0.000 OA
BRANCH  12  14
ATOM     13  C   UNL     1      98.757 108.242 131.671  0.00  0.00    +0.000 C 
ATOM     14  C   UNL     1     100.071 107.400 131.268  0.00  0.00    +0.000 C 
ENDBRANCH  12  14
ENDBRANCH   4  12
ENDBRANCH   2   7
ENDBRANCH   1   2
BRANCH   1  15
ATOM     15  C   UNL     1      99.084 108.536 124.074  0.00  0.00    +0.000 C 
BRANCH  15  16
ATOM     16  C   UNL     1      98.945 107.673 122.812  0.00  0.00    +0.000 C 
ATOM     17  O   UNL     1      99.635 106.705 122.643  0.00  0.00    +0.000 OA
ATOM     18  N   UNL     1      97.908 108.075 121.963  0.00  0.00    +0.000 N 
ATOM     19  C   UNL     1      97.517 109.397 121.772  0.00  0.00    +0.000 C 
ATOM     20  C   UNL     1      96.343 109.554 120.892  0.00  0.00    +0.000 C 
ATOM     21  C   UNL     1      96.517 108.336 120.010  0.00  0.00    +0.000 C 
ATOM     22  C   UNL     1      97.453 107.354 120.807  0.00  0.00    +0.000 C 
BRANCH  22  23
ATOM     23  C   UNL     1      96.633 106.264 121.278  0.00  0.00    +0.000 A 
ATOM     24  C   UNL     1      96.917 104.933 121.337  0.00  0.00    +0.000 A 
ATOM     25  C   UNL     1      95.703 104.340 121.704  0.00  0.00    +0.000 A 
ATOM     26  C   UNL     1      94.791 105.354 121.888  0.00  0.00    +0.000 A 
ATOM     27  O   UNL     1      95.357 106.540 121.617  0.00  0.00    +0.000 OA
ENDBRANCH  22  23
ENDBRANCH  15  16
ENDBRANCH   1  15
TORSDOF 8
ENDMDL
MODEL 4
REMARK VINA RESULT:    -8.351      2.023      3.260
REMARK INTER + INTRA:         -14.131
REMARK INTER:                 -13.408
REMARK INTRA:                  -0.722
REMARK UNBOUND:                -1.874
REMARK  Name = 
REMARK  10 active torsions:
REMARK  status: ('A' for Active; 'I' for Inactive)
REMARK    1  A    between atoms: C_1  and  C_2
REMARK    2  A    between atoms: C_2  and  O_3
REMARK    3  A    between atoms: O_3  and  C_4
REMARK    4  A    between atoms: C_7  and  C_8
REMARK    5  A    between atoms: C_8  and  C_10
REMARK    6  A    between atoms: C_10  and  C_11
REMARK    7  A    between atoms: C_11  and  C_12
REMARK    8  A    between atoms: C_18  and  C_19
REMARK    9  A    between atoms: C_25  and  O_26
REMARK   10  A    between atoms: O_26  and  C_27
REMARK                            x       y       z     vdW  Elec       q    Type
REMARK                         _______ _______ _______ _____ _____    ______ ____
ROOT
ATOM      1  C   UNL     1      98.772 106.946 125.075  0.00  0.00    +0.000 C 
ENDROOT
BRANCH   1   2
ATOM      2  C   UNL     1      98.737 106.644 123.523  0.00  0.00    +0.000 C 
ATOM      3  O   UNL     1      99.167 105.558 123.129  0.00  0.00    +0.000 OA
BRANCH   2   7
ATOM      4  C   UNL     1      96.219 109.481 121.208  0.00  0.00    +0.000 A 
ATOM      5  C   UNL     1      97.101 109.975 122.219  0.00  0.00    +0.000 A 
ATOM      6  C   UNL     1      98.189 109.136 122.832  0.00  0.00    +0.000 A 
ATOM      7  C   UNL     1      98.415 107.764 122.457  0.00  0.00    +0.000 A 
ATOM      8  C   UNL     1      97.688 107.363 121.356  0.00  0.00    +0.000 A 
ATOM      9  C   UNL     1      96.648 108.177 120.775  0.00  0.00    +0.000 A 
BRANCH   9  10
ATOM     10  O   UNL     1      96.082 107.344 119.841  0.00  0.00    +0.000 OA
ATOM     11  C   UNL     1      95.853 106.158 120.471  0.00  0.00    +0.000 C 
ENDBRANCH   9  10
BRANCH   4  12
ATOM     12  O   UNL     1      95.096 110.273 120.810  0.00  0.00    +0.000 OA
BRANCH  12  14
ATOM     13  C   UNL     1      94.145 112.197 122.747  0.00  0.00    +0.000 C 
ATOM     14  C   UNL     1      94.223 111.511 121.291  0.00  0.00    +0.000 C 
ENDBRANCH  12  14
ENDBRANCH   4  12
ENDBRANCH   2   7
ENDBRANCH   1   2
BRANCH   1  15
ATOM     15  C   UNL     1      99.328 108.271 125.649  0.00  0.00    +0.000 C 
BRANCH  15  16
ATOM     16  C   UNL     1     100.767 108.316 126.182  0.00  0.00    +0.000 C 
ATOM     17  O   UNL     1     101.694 107.993 125.490  0.00  0.00    +0.000 OA
ATOM     18  N   UNL     1     100.877 108.837 127.475  0.00  0.00    +0.000 N 
ATOM     19  C   UNL     1      99.925 108.662 128.476  0.00  0.00    +0.000 C 
ATOM     20  C   UNL     1     100.231 109.383 129.726  0.00  0.00    +0.000 C 
ATOM     21  C   UNL     1     101.743 109.389 129.657  0.00  0.00    +0.000 C 
ATOM     22  C   UNL     1     102.109 109.144 128.146  0.00  0.00    +0.000 C 
BRANCH  22  23
ATOM     23  C   UNL     1     102.587 110.396 127.611  0.00  0.00    +0.000 A 
ATOM     24  C   UNL     1     102.133 111.661 127.835  0.00  0.00    +0.000 A 
ATOM     25  C   UNL     1     102.848 112.448 126.924  0.00  0.00    +0.000 A 
ATOM     26  C   UNL     1     103.713 111.613 126.252  0.00  0.00    +0.000 A 
ATOM     27  O   UNL     1     103.548 110.347 126.665  0.00  0.00    +0.000 OA
ENDBRANCH  22  23
ENDBRANCH  15  16
ENDBRANCH   1  15
TORSDOF 8
ENDMDL
MODEL 5
REMARK VINA RESULT:    -8.309      2.774      7.340
REMARK INTER + INTRA:         -14.068
REMARK INTER:                 -13.090
REMARK INTRA:                  -0.978
REMARK UNBOUND:                -1.874
REMARK  Name = 
REMARK  10 active torsions:
REMARK  status: ('A' for Active; 'I' for Inactive)
REMARK    1  A    between atoms: C_1  and  C_2
REMARK    2  A    between atoms: C_2  and  O_3
REMARK    3  A    between atoms: O_3  and  C_4
REMARK    4  A    between atoms: C_7  and  C_8
REMARK    5  A    between atoms: C_8  and  C_10
REMARK    6  A    between atoms: C_10  and  C_11
REMARK    7  A    between atoms: C_11  and  C_12
REMARK    8  A    between atoms: C_18  and  C_19
REMARK    9  A    between atoms: C_25  and  O_26
REMARK   10  A    between atoms: O_26  and  C_27
REMARK                            x       y       z     vdW  Elec       q    Type
REMARK                         _______ _______ _______ _____ _____    ______ ____
ROOT
ATOM      1  C   UNL     1     100.635 107.720 125.181  0.00  0.00    +0.000 C 
ENDROOT
BRANCH   1   2
ATOM      2  C   UNL     1     101.418 107.046 126.378  0.00  0.00    +0.000 C 
ATOM      3  O   UNL     1     101.400 105.817 126.470  0.00  0.00    +0.000 OA
BRANCH   2   7
ATOM      4  C   UNL     1     101.460 110.187 129.522  0.00  0.00    +0.000 A 
ATOM      5  C   UNL     1     101.297 108.815 129.890  0.00  0.00    +0.000 A 
ATOM      6  C   UNL     1     101.567 107.680 128.941  0.00  0.00    +0.000 A 
ATOM      7  C   UNL     1     101.996 107.888 127.582  0.00  0.00    +0.000 A 
ATOM      8  C   UNL     1     102.330 109.197 127.301  0.00  0.00    +0.000 A 
ATOM      9  C   UNL     1     102.069 110.278 128.220  0.00  0.00    +0.000 A 
BRANCH   9  10
ATOM     10  O   UNL     1     102.386 111.397 127.488  0.00  0.00    +0.000 OA
ATOM     11  C   UNL     1     101.421 111.517 126.533  0.00  0.00    +0.000 C 
ENDBRANCH   9  10
BRANCH   4  12
ATOM     12  O   UNL     1     101.007 111.210 130.413  0.00  0.00    +0.000 OA
BRANCH  12  14
ATOM     13  C   UNL     1      99.222 110.357 132.521  0.00  0.00    +0.000 C 
ATOM     14  C   UNL     1     100.182 111.402 131.757  0.00  0.00    +0.000 C 
ENDBRANCH  12  14
ENDBRANCH   4  12
ENDBRANCH   2   7
ENDBRANCH   1   2
BRANCH   1  15
ATOM     15  C   UNL     1      99.197 107.301 124.791  0.00  0.00    +0.000 C 
BRANCH  15  16
ATOM     16  C   UNL     1      98.927 106.757 123.381  0.00  0.00    +0.000 C 
ATOM     17  O   UNL     1      99.278 105.652 123.066  0.00  0.00    +0.000 OA
ATOM     18  N   UNL     1      98.182 107.621 122.573  0.00  0.00    +0.000 N 
ATOM     19  C   UNL     1      98.269 109.010 122.619  0.00  0.00    +0.000 C 
ATOM     20  C   UNL     1      97.317 109.700 121.727  0.00  0.00    +0.000 C 
ATOM     21  C   UNL     1      97.183 108.657 120.638  0.00  0.00    +0.000 C 
ATOM     22  C   UNL     1      97.650 107.298 121.278  0.00  0.00    +0.000 C 
BRANCH  22  23
ATOM     23  C   UNL     1      96.471 106.493 121.489  0.00  0.00    +0.000 A 
ATOM     24  C   UNL     1      96.056 105.380 120.822  0.00  0.00    +0.000 A 
ATOM     25  C   UNL     1      94.774 105.135 121.331  0.00  0.00    +0.000 A 
ATOM     26  C   UNL     1      94.529 106.084 122.298  0.00  0.00    +0.000 A 
ATOM     27  O   UNL     1      95.568 106.928 122.391  0.00  0.00    +0.000 OA
ENDBRANCH  22  23
ENDBRANCH  15  16
ENDBRANCH   1  15
TORSDOF 8
ENDMDL
MODEL 6
REMARK VINA RESULT:    -8.168      1.918      4.493
REMARK INTER + INTRA:         -13.862
REMARK INTER:                 -12.208
REMARK INTRA:                  -1.654
REMARK UNBOUND:                -1.874
REMARK  Name = 
REMARK  10 active torsions:
REMARK  status: ('A' for Active; 'I' for Inactive)
REMARK    1  A    between atoms: C_1  and  C_2
REMARK    2  A    between atoms: C_2  and  O_3
REMARK    3  A    between atoms: O_3  and  C_4
REMARK    4  A    between atoms: C_7  and  C_8
REMARK    5  A    between atoms: C_8  and  C_10
REMARK    6  A    between atoms: C_10  and  C_11
REMARK    7  A    between atoms: C_11  and  C_12
REMARK    8  A    between atoms: C_18  and  C_19
REMARK    9  A    between atoms: C_25  and  O_26
REMARK   10  A    between atoms: O_26  and  C_27
REMARK                            x       y       z     vdW  Elec       q    Type
REMARK                         _______ _______ _______ _____ _____    ______ ____
ROOT
ATOM      1  C   UNL     1     102.322 109.593 124.360  0.00  0.00    +0.000 C 
ENDROOT
BRANCH   1   2
ATOM      2  C   UNL     1     100.936 110.212 124.805  0.00  0.00    +0.000 C 
ATOM      3  O   UNL     1     100.939 111.087 125.673  0.00  0.00    +0.000 OA
BRANCH   2   7
ATOM      4  C   UNL     1      97.974 108.364 122.055  0.00  0.00    +0.000 A 
ATOM      5  C   UNL     1      98.608 107.566 123.057  0.00  0.00    +0.000 A 
ATOM      6  C   UNL     1      99.382 108.160 124.202  0.00  0.00    +0.000 A 
ATOM      7  C   UNL     1      99.557 109.580 124.368  0.00  0.00    +0.000 A 
ATOM      8  C   UNL     1      98.787 110.337 123.510  0.00  0.00    +0.000 A 
ATOM      9  C   UNL     1      98.046 109.756 122.416  0.00  0.00    +0.000 A 
BRANCH   9  10
ATOM     10  O   UNL     1      97.582 110.855 121.733  0.00  0.00    +0.000 OA
ATOM     11  C   UNL     1      96.412 111.213 122.331  0.00  0.00    +0.000 C 
ENDBRANCH   9  10
BRANCH   4  12
ATOM     12  O   UNL     1      97.418 107.729 120.900  0.00  0.00    +0.000 OA
BRANCH  12  14
ATOM     13  C   UNL     1      95.667 105.433 120.747  0.00  0.00    +0.000 C 
ATOM     14  C   UNL     1      96.120 106.946 120.424  0.00  0.00    +0.000 C 
ENDBRANCH  12  14
ENDBRANCH   4  12
ENDBRANCH   2   7
ENDBRANCH   1   2
BRANCH   1  15
ATOM     15  C   UNL     1     102.966 108.392 125.092  0.00  0.00    +0.000 C 
BRANCH  15  16
ATOM     16  C   UNL     1     103.035 108.393 126.625  0.00  0.00    +0.000 C 
ATOM     17  O   UNL     1     103.887 109.009 127.207  0.00  0.00    +0.000 OA
ATOM     18  N   UNL     1     101.988 107.699 127.241  0.00  0.00    +0.000 N 
ATOM     19  C   UNL     1     101.389 106.556 126.718  0.00  0.00    +0.000 C 
ATOM     20  C   UNL     1     100.249 106.061 127.512  0.00  0.00    +0.000 C 
ATOM     21  C   UNL     1     100.668 106.533 128.888  0.00  0.00    +0.000 C 
ATOM     22  C   UNL     1     101.717 107.681 128.651  0.00  0.00    +0.000 C 
BRANCH  22  23
ATOM     23  C   UNL     1     101.071 108.930 128.978  0.00  0.00    +0.000 A 
ATOM     24  C   UNL     1      99.901 109.445 128.508  0.00  0.00    +0.000 A 
ATOM     25  C   UNL     1      99.866 110.744 129.030  0.00  0.00    +0.000 A 
ATOM     26  C   UNL     1     100.987 110.902 129.813  0.00  0.00    +0.000 A 
ATOM     27  O   UNL     1     101.737 109.790 129.776  0.00  0.00    +0.000 OA
ENDBRANCH  22  23
ENDBRANCH  15  16
ENDBRANCH   1  15
TORSDOF 8
ENDMDL
MODEL 7
REMARK VINA RESULT:    -8.111      1.887      3.049
REMARK INTER + INTRA:         -13.778
REMARK INTER:                 -12.605
REMARK INTRA:                  -1.173
REMARK UNBOUND:                -1.874
REMARK  Name = 
REMARK  10 active torsions:
REMARK  status: ('A' for Active; 'I' for Inactive)
REMARK    1  A    between atoms: C_1  and  C_2
REMARK    2  A    between atoms: C_2  and  O_3
REMARK    3  A    between atoms: O_3  and  C_4
REMARK    4  A    between atoms: C_7  and  C_8
REMARK    5  A    between atoms: C_8  and  C_10
REMARK    6  A    between atoms: C_10  and  C_11
REMARK    7  A    between atoms: C_11  and  C_12
REMARK    8  A    between atoms: C_18  and  C_19
REMARK    9  A    between atoms: C_25  and  O_26
REMARK   10  A    between atoms: O_26  and  C_27
REMARK                            x       y       z     vdW  Elec       q    Type
REMARK                         _______ _______ _______ _____ _____    ______ ____
ROOT
ATOM      1  C   UNL     1      99.259 107.386 124.148  0.00  0.00    +0.000 C 
ENDROOT
BRANCH   1   2
ATOM      2  C   UNL     1      99.350 108.891 123.670  0.00  0.00    +0.000 C 
ATOM      3  O   UNL     1     100.174 109.628 124.215  0.00  0.00    +0.000 OA
BRANCH   2   7
ATOM      4  C   UNL     1      95.379 110.500 122.489  0.00  0.00    +0.000 A 
ATOM      5  C   UNL     1      96.476 111.394 122.696  0.00  0.00    +0.000 A 
ATOM      6  C   UNL     1      97.901 110.924 122.800  0.00  0.00    +0.000 A 
ATOM      7  C   UNL     1      98.269 109.534 122.716  0.00  0.00    +0.000 A 
ATOM      8  C   UNL     1      97.234 108.709 122.329  0.00  0.00    +0.000 A 
ATOM      9  C   UNL     1      95.870 109.172 122.229  0.00  0.00    +0.000 A 
BRANCH   9  10
ATOM     10  O   UNL     1      95.163 108.016 121.995  0.00  0.00    +0.000 OA
ATOM     11  C   UNL     1      95.429 107.185 123.041  0.00  0.00    +0.000 C 
ENDBRANCH   9  10
BRANCH   4  12
ATOM     12  O   UNL     1      94.042 110.997 122.587  0.00  0.00    +0.000 OA
BRANCH  12  14
ATOM     13  C   UNL     1      93.162 112.893 120.589  0.00  0.00    +0.000 C 
ATOM     14  C   UNL     1      93.106 112.149 122.018  0.00  0.00    +0.000 C 
ENDBRANCH  12  14
ENDBRANCH   4  12
ENDBRANCH   2   7
ENDBRANCH   1   2
BRANCH   1  15
ATOM     15  C   UNL     1      99.232 106.992 125.644  0.00  0.00    +0.000 C 
BRANCH  15  16
ATOM     16  C   UNL     1     100.530 107.050 126.462  0.00  0.00    +0.000 C 
ATOM     17  O   UNL     1     101.395 106.230 126.311  0.00  0.00    +0.000 OA
ATOM     18  N   UNL     1     100.623 108.166 127.299  0.00  0.00    +0.000 N 
ATOM     19  C   UNL     1      99.540 108.758 127.944  0.00  0.00    +0.000 C 
ATOM     20  C   UNL     1      99.886 109.975 128.702  0.00  0.00    +0.000 C 
ATOM     21  C   UNL     1     101.321 109.655 129.063  0.00  0.00    +0.000 C 
ATOM     22  C   UNL     1     101.789 108.553 128.043  0.00  0.00    +0.000 C 
BRANCH  22  23
ATOM     23  C   UNL     1     102.699 109.183 127.116  0.00  0.00    +0.000 A 
ATOM     24  C   UNL     1     103.974 108.835 126.788  0.00  0.00    +0.000 A 
ATOM     25  C   UNL     1     104.423 109.894 125.988  0.00  0.00    +0.000 A 
ATOM     26  C   UNL     1     103.374 110.776 125.851  0.00  0.00    +0.000 A 
ATOM     27  O   UNL     1     102.314 110.347 126.553  0.00  0.00    +0.000 OA
ENDBRANCH  22  23
ENDBRANCH  15  16
ENDBRANCH   1  15
TORSDOF 8
ENDMDL
MODEL 8
REMARK VINA RESULT:    -8.055      2.384      5.017
REMARK INTER + INTRA:         -13.696
REMARK INTER:                 -12.450
REMARK INTRA:                  -1.246
REMARK UNBOUND:                -1.874
REMARK  Name = 
REMARK  10 active torsions:
REMARK  status: ('A' for Active; 'I' for Inactive)
REMARK    1  A    between atoms: C_1  and  C_2
REMARK    2  A    between atoms: C_2  and  O_3
REMARK    3  A    between atoms: O_3  and  C_4
REMARK    4  A    between atoms: C_7  and  C_8
REMARK    5  A    between atoms: C_8  and  C_10
REMARK    6  A    between atoms: C_10  and  C_11
REMARK    7  A    between atoms: C_11  and  C_12
REMARK    8  A    between atoms: C_18  and  C_19
REMARK    9  A    between atoms: C_25  and  O_26
REMARK   10  A    between atoms: O_26  and  C_27
REMARK                            x       y       z     vdW  Elec       q    Type
REMARK                         _______ _______ _______ _____ _____    ______ ____
ROOT
ATOM      1  C   UNL     1     100.955 111.023 125.759  0.00  0.00    +0.000 C 
ENDROOT
BRANCH   1   2
ATOM      2  C   UNL     1     101.481 110.032 124.644  0.00  0.00    +0.000 C 
ATOM      3  O   UNL     1     102.698 109.884 124.520  0.00  0.00    +0.000 OA
BRANCH   2   7
ATOM      4  C   UNL     1      97.807 108.150 122.995  0.00  0.00    +0.000 A 
ATOM      5  C   UNL     1      98.068 109.535 122.752  0.00  0.00    +0.000 A 
ATOM      6  C   UNL     1      99.407 110.170 123.010  0.00  0.00    +0.000 A 
ATOM      7  C   UNL     1     100.527 109.433 123.537  0.00  0.00    +0.000 A 
ATOM      8  C   UNL     1     100.320 108.071 123.587  0.00  0.00    +0.000 A 
ATOM      9  C   UNL     1      99.031 107.472 123.335  0.00  0.00    +0.000 A 
BRANCH   9  10
ATOM     10  O   UNL     1      99.229 106.151 123.658  0.00  0.00    +0.000 OA
ATOM     11  C   UNL     1      99.066 105.445 122.505  0.00  0.00    +0.000 C 
ENDBRANCH   9  10
BRANCH   4  12
ATOM     12  O   UNL     1      96.466 107.663 122.904  0.00  0.00    +0.000 OA
BRANCH  12  14
ATOM     13  C   UNL     1      95.551 105.625 121.068  0.00  0.00    +0.000 C 
ATOM     14  C   UNL     1      95.451 107.025 121.861  0.00  0.00    +0.000 C 
ENDBRANCH  12  14
ENDBRANCH   4  12
ENDBRANCH   2   7
ENDBRANCH   1   2
BRANCH   1  15
ATOM     15  C   UNL     1     100.173 110.533 127.001  0.00  0.00    +0.000 C 
BRANCH  15  16
ATOM     16  C   UNL     1     100.942 110.157 128.275  0.00  0.00    +0.000 C 
ATOM     17  O   UNL     1     101.457 110.999 128.960  0.00  0.00    +0.000 OA
ATOM     18  N   UNL     1     100.900 108.793 128.582  0.00  0.00    +0.000 N 
ATOM     19  C   UNL     1     100.878 107.775 127.632  0.00  0.00    +0.000 C 
ATOM     20  C   UNL     1     100.746 106.423 128.206  0.00  0.00    +0.000 C 
ATOM     21  C   UNL     1     101.419 106.644 129.544  0.00  0.00    +0.000 C 
ATOM     22  C   UNL     1     101.389 108.197 129.793  0.00  0.00    +0.000 C 
BRANCH  22  23
ATOM     23  C   UNL     1     100.407 108.449 130.820  0.00  0.00    +0.000 A 
ATOM     24  C   UNL     1      99.143 107.956 130.946  0.00  0.00    +0.000 A 
ATOM     25  C   UNL     1      98.599 108.675 132.017  0.00  0.00    +0.000 A 
ATOM     26  C   UNL     1      99.585 109.511 132.491  0.00  0.00    +0.000 A 
ATOM     27  O   UNL     1     100.696 109.383 131.750  0.00  0.00    +0.000 OA
ENDBRANCH  22  23
ENDBRANCH  15  16
ENDBRANCH   1  15
TORSDOF 8
ENDMDL
MODEL 9
REMARK VINA RESULT:    -8.000      2.000      3.702
REMARK INTER + INTRA:         -13.615
REMARK INTER:                 -12.582
REMARK INTRA:                  -1.033
REMARK UNBOUND:                -1.874
REMARK  Name = 
REMARK  10 active torsions:
REMARK  status: ('A' for Active; 'I' for Inactive)
REMARK    1  A    between atoms: C_1  and  C_2
REMARK    2  A    between atoms: C_2  and  O_3
REMARK    3  A    between atoms: O_3  and  C_4
REMARK    4  A    between atoms: C_7  and  C_8
REMARK    5  A    between atoms: C_8  and  C_10
REMARK    6  A    between atoms: C_10  and  C_11
REMARK    7  A    between atoms: C_11  and  C_12
REMARK    8  A    between atoms: C_18  and  C_19
REMARK    9  A    between atoms: C_25  and  O_26
REMARK   10  A    between atoms: O_26  and  C_27
REMARK                            x       y       z     vdW  Elec       q    Type
REMARK                         _______ _______ _______ _____ _____    ______ ____
ROOT
ATOM      1  C   UNL     1      99.470 106.824 124.581  0.00  0.00    +0.000 C 
ENDROOT
BRANCH   1   2
ATOM      2  C   UNL     1      98.781 106.245 123.281  0.00  0.00    +0.000 C 
ATOM      3  O   UNL     1      99.158 105.152 122.857  0.00  0.00    +0.000 OA
BRANCH   2   7
ATOM      4  C   UNL     1      95.375 108.948 122.358  0.00  0.00    +0.000 A 
ATOM      5  C   UNL     1      96.713 109.452 122.322  0.00  0.00    +0.000 A 
ATOM      6  C   UNL     1      97.921 108.556 122.326  0.00  0.00    +0.000 A 
ATOM      7  C   UNL     1      97.823 107.120 122.380  0.00  0.00    +0.000 A 
ATOM      8  C   UNL     1      96.538 106.646 122.223  0.00  0.00    +0.000 A 
ATOM      9  C   UNL     1      95.385 107.515 122.219  0.00  0.00    +0.000 A 
BRANCH   9  10
ATOM     10  O   UNL     1      94.329 106.636 122.217  0.00  0.00    +0.000 OA
ATOM     11  C   UNL     1      94.768 105.508 121.592  0.00  0.00    +0.000 C 
ENDBRANCH   9  10
BRANCH   4  12
ATOM     12  O   UNL     1      94.288 109.859 122.541  0.00  0.00    +0.000 OA
BRANCH  12  14
ATOM     13  C   UNL     1      95.036 112.592 123.117  0.00  0.00    +0.000 C 
ATOM     14  C   UNL     1      93.996 111.381 122.890  0.00  0.00    +0.000 C 
ENDBRANCH  12  14
ENDBRANCH   4  12
ENDBRANCH   2   7
ENDBRANCH   1   2
BRANCH   1  15
ATOM     15  C   UNL     1     100.709 107.749 124.521  0.00  0.00    +0.000 C 
BRANCH  15  16
ATOM     16  C   UNL     1     100.666 109.113 125.223  0.00  0.00    +0.000 C 
ATOM     17  O   UNL     1      99.623 109.675 125.423  0.00  0.00    +0.000 OA
ATOM     18  N   UNL     1     101.914 109.564 125.665  0.00  0.00    +0.000 N 
ATOM     19  C   UNL     1     103.115 109.325 125.001  0.00  0.00    +0.000 C 
ATOM     20  C   UNL     1     104.303 109.831 125.713  0.00  0.00    +0.000 C 
ATOM     21  C   UNL     1     103.685 111.000 126.449  0.00  0.00    +0.000 C 
ATOM     22  C   UNL     1     102.138 110.718 126.490  0.00  0.00    +0.000 C 
BRANCH  22  23
ATOM     23  C   UNL     1     101.804 110.346 127.844  0.00  0.00    +0.000 A 
ATOM     24  C   UNL     1     102.299 109.332 128.608  0.00  0.00    +0.000 A 
ATOM     25  C   UNL     1     101.490 109.339 129.751  0.00  0.00    +0.000 A 
ATOM     26  C   UNL     1     100.601 110.382 129.618  0.00  0.00    +0.000 A 
ATOM     27  O   UNL     1     100.784 110.998 128.440  0.00  0.00    +0.000 OA
ENDBRANCH  22  23
ENDBRANCH  15  16
ENDBRANCH   1  15
TORSDOF 8
ENDMDL
MODEL 10
REMARK VINA RESULT:    -7.812      3.007      7.912
REMARK INTER + INTRA:         -13.340
REMARK INTER:                 -12.570
REMARK INTRA:                  -0.770
REMARK UNBOUND:                -1.874
REMARK  Name = 
REMARK  10 active torsions:
REMARK  status: ('A' for Active; 'I' for Inactive)
REMARK    1  A    between atoms: C_1  and  C_2
REMARK    2  A    between atoms: C_2  and  O_3
REMARK    3  A    between atoms: O_3  and  C_4
REMARK    4  A    between atoms: C_7  and  C_8
REMARK    5  A    between atoms: C_8  and  C_10
REMARK    6  A    between atoms: C_10  and  C_11
REMARK    7  A    between atoms: C_11  and  C_12
REMARK    8  A    between atoms: C_18  and  C_19
REMARK    9  A    between atoms: C_25  and  O_26
REMARK   10  A    between atoms: O_26  and  C_27
REMARK                            x       y       z     vdW  Elec       q    Type
REMARK                         _______ _______ _______ _____ _____    ______ ____
ROOT
ATOM      1  C   UNL     1     100.224 106.935 125.949  0.00  0.00    +0.000 C 
ENDROOT
BRANCH   1   2
ATOM      2  C   UNL     1     101.214 107.959 126.636  0.00  0.00    +0.000 C 
ATOM      3  O   UNL     1     102.400 107.940 126.301  0.00  0.00    +0.000 OA
BRANCH   2   7
ATOM      4  C   UNL     1     101.110 109.153 130.916  0.00  0.00    +0.000 A 
ATOM      5  C   UNL     1     101.829 109.951 129.972  0.00  0.00    +0.000 A 
ATOM      6  C   UNL     1     101.673 109.793 128.485  0.00  0.00    +0.000 A 
ATOM      7  C   UNL     1     100.795 108.814 127.895  0.00  0.00    +0.000 A 
ATOM      8  C   UNL     1      99.972 108.188 128.807  0.00  0.00    +0.000 A 
ATOM      9  C   UNL     1     100.130 108.348 130.233  0.00  0.00    +0.000 A 
BRANCH   9  10
ATOM     10  O   UNL     1      99.244 107.435 130.752  0.00  0.00    +0.000 OA
ATOM     11  C   UNL     1      98.461 108.117 131.634  0.00  0.00    +0.000 C 
ENDBRANCH   9  10
BRANCH   4  12
ATOM     12  O   UNL     1     101.449 109.231 132.303  0.00  0.00    +0.000 OA
BRANCH  12  14
ATOM     13  C   UNL     1     101.892 106.708 133.643  0.00  0.00    +0.000 C 
ATOM     14  C   UNL     1     101.909 108.315 133.516  0.00  0.00    +0.000 C 
ENDBRANCH  12  14
ENDBRANCH   4  12
ENDBRANCH   2   7
ENDBRANCH   1   2
BRANCH   1  15
ATOM     15  C   UNL     1      99.039 107.393 125.066  0.00  0.00    +0.000 C 
BRANCH  15  16
ATOM     16  C   UNL     1      98.899 106.835 123.643  0.00  0.00    +0.000 C 
ATOM     17  O   UNL     1      99.352 105.761 123.352  0.00  0.00    +0.000 OA
ATOM     18  N   UNL     1      98.141 107.642 122.789  0.00  0.00    +0.000 N 
ATOM     19  C   UNL     1      98.118 109.033 122.839  0.00  0.00    +0.000 C 
ATOM     20  C   UNL     1      97.173 109.651 121.888  0.00  0.00    +0.000 C 
ATOM     21  C   UNL     1      97.187 108.605 120.794  0.00  0.00    +0.000 C 
ATOM     22  C   UNL     1      97.716 107.283 121.465  0.00  0.00    +0.000 C 
BRANCH  22  23
ATOM     23  C   UNL     1      96.592 106.390 121.604  0.00  0.00    +0.000 A 
ATOM     24  C   UNL     1      96.488 105.074 121.265  0.00  0.00    +0.000 A 
ATOM     25  C   UNL     1      95.132 104.778 121.455  0.00  0.00    +0.000 A 
ATOM     26  C   UNL     1      94.528 105.917 121.939  0.00  0.00    +0.000 A 
ATOM     27  O   UNL     1      95.421 106.915 122.022  0.00  0.00    +0.000 OA
ENDBRANCH  22  23
ENDBRANCH  15  16
ENDBRANCH   1  15
TORSDOF 8
ENDMDL
