MODEL 1
REMARK VINA RESULT:    -8.863      0.000      0.000
REMARK INTER + INTRA:         -12.469
REMARK INTER:                 -11.972
REMARK INTRA:                  -0.497
REMARK UNBOUND:                -0.497
REMARK  Name = 
REMARK  7 active torsions:
REMARK  status: ('A' for Active; 'I' for Inactive)
REMARK    1  A    between atoms: C_2  and  C_3
REMARK    2  A    between atoms: C_3  and  N_4
REMARK    3  A    between atoms: N_4  and  C_5
REMARK    4  A    between atoms: C_5  and  C_6
REMARK    5  A    between atoms: C_7  and  C_8
REMARK    6  A    between atoms: C_9  and  C_11
REMARK    7  A    between atoms: N_13  and  C_14
REMARK                            x       y       z     vdW  Elec       q    Type
REMARK                         _______ _______ _______ _____ _____    ______ ____
ROOT
ATOM      1  C   UNL     1     -41.446-159.071 310.556  0.00  0.00    +0.000 A 
ATOM      2  C   UNL     1     -42.211-157.941 310.337  0.00  0.00    +0.000 A 
ATOM      3  N   UNL     1     -42.416-157.892 308.973  0.00  0.00    +0.000 N 
ATOM      4  N   UNL     1     -41.600-158.791 308.379  0.00  0.00    +0.000 NA
ATOM      5  N   UNL     1     -40.947-159.457 309.334  0.00  0.00    +0.000 NA
ENDROOT
BRANCH   3   6
ATOM      6  C   UNL     1     -43.357-157.098 308.250  0.00  0.00    +0.000 A 
ATOM      7  C   UNL     1     -44.263-157.716 307.371  0.00  0.00    +0.000 A 
ATOM      8  C   UNL     1     -45.128-156.947 306.580  0.00  0.00    +0.000 A 
ATOM      9  C   UNL     1     -45.103-155.559 306.665  0.00  0.00    +0.000 A 
ATOM     10 CL   UNL     1     -46.180-154.626 305.697  0.00  0.00    +0.000 Cl
ATOM     11  C   UNL     1     -44.205-154.928 307.529  0.00  0.00    +0.000 A 
ATOM     12  C   UNL     1     -43.334-155.693 308.327  0.00  0.00    +0.000 A 
ENDBRANCH   3   6
BRANCH   1  14
ATOM     13  N   UNL     1     -41.462-161.019 312.137  0.00  0.00    +0.000 N 
ATOM     14  C   UNL     1     -41.086-159.686 311.839  0.00  0.00    +0.000 C 
ATOM     15  O   UNL     1     -40.456-158.999 312.668  0.00  0.00    +0.000 OA
BRANCH  13  16
ATOM     16  C   UNL     1     -41.029-161.603 313.417  0.00  0.00    +0.000 C 
BRANCH  16  18
ATOM     17  C   UNL     1     -41.936-161.998 315.715  0.00  0.00    +0.000 C 
ATOM     18  C   UNL     1     -42.077-161.469 314.490  0.00  0.00    +0.000 C 
ENDBRANCH  16  18
ENDBRANCH  13  16
BRANCH  13  19
ATOM     19  C   UNL     1     -42.177-161.922 311.222  0.00  0.00    +0.000 C 
BRANCH  19  20
ATOM     20  C   UNL     1     -41.386-163.167 310.944  0.00  0.00    +0.000 C 
ATOM     21  C   UNL     1     -41.446-163.837 309.778  0.00  0.00    +0.000 C 
ATOM     22  C   UNL     1     -40.865-165.203 309.591  0.00  0.00    +0.000 C 
ENDBRANCH  19  20
ENDBRANCH  13  19
ENDBRANCH   1  14
TORSDOF 6
ENDMDL
MODEL 2
REMARK VINA RESULT:    -8.856      3.637      7.840
REMARK INTER + INTRA:         -12.459
REMARK INTER:                 -12.249
REMARK INTRA:                  -0.211
REMARK UNBOUND:                -0.497
REMARK  Name = 
REMARK  7 active torsions:
REMARK  status: ('A' for Active; 'I' for Inactive)
REMARK    1  A    between atoms: C_2  and  C_3
REMARK    2  A    between atoms: C_3  and  N_4
REMARK    3  A    between atoms: N_4  and  C_5
REMARK    4  A    between atoms: C_5  and  C_6
REMARK    5  A    between atoms: C_7  and  C_8
REMARK    6  A    between atoms: C_9  and  C_11
REMARK    7  A    between atoms: N_13  and  C_14
REMARK                            x       y       z     vdW  Elec       q    Type
REMARK                         _______ _______ _______ _____ _____    ______ ____
ROOT
ATOM      1  C   UNL     1     -41.418-158.418 307.402  0.00  0.00    +0.000 A 
ATOM      2  C   UNL     1     -41.993-158.522 308.654  0.00  0.00    +0.000 A 
ATOM      3  N   UNL     1     -41.458-159.665 309.211  0.00  0.00    +0.000 N 
ATOM      4  N   UNL     1     -40.805-160.353 308.249  0.00  0.00    +0.000 NA
ATOM      5  N   UNL     1     -40.845-159.637 307.123  0.00  0.00    +0.000 NA
ENDROOT
BRANCH   3   6
ATOM      6  C   UNL     1     -41.497-160.083 310.577  0.00  0.00    +0.000 A 
ATOM      7  C   UNL     1     -40.613-161.077 311.028  0.00  0.00    +0.000 A 
ATOM      8  C   UNL     1     -40.699-161.570 312.338  0.00  0.00    +0.000 A 
ATOM      9  C   UNL     1     -41.662-161.069 313.209  0.00  0.00    +0.000 A 
ATOM     10 CL   UNL     1     -41.750-161.673 314.819  0.00  0.00    +0.000 Cl
ATOM     11  C   UNL     1     -42.552-160.084 312.776  0.00  0.00    +0.000 A 
ATOM     12  C   UNL     1     -42.471-159.585 311.462  0.00  0.00    +0.000 A 
ENDBRANCH   3   6
BRANCH   1  14
ATOM     13  N   UNL     1     -42.764-156.789 306.048  0.00  0.00    +0.000 N 
ATOM     14  C   UNL     1     -41.506-157.299 306.455  0.00  0.00    +0.000 C 
ATOM     15  O   UNL     1     -40.445-156.820 306.005  0.00  0.00    +0.000 OA
BRANCH  13  16
ATOM     16  C   UNL     1     -42.792-155.632 305.138  0.00  0.00    +0.000 C 
BRANCH  16  18
ATOM     17  C   UNL     1     -44.695-154.087 304.639  0.00  0.00    +0.000 C 
ATOM     18  C   UNL     1     -43.842-154.626 305.525  0.00  0.00    +0.000 C 
ENDBRANCH  16  18
ENDBRANCH  13  16
BRANCH  13  19
ATOM     19  C   UNL     1     -44.068-157.260 306.539  0.00  0.00    +0.000 C 
BRANCH  19  20
ATOM     20  C   UNL     1     -44.966-157.674 305.409  0.00  0.00    +0.000 C 
ATOM     21  C   UNL     1     -46.276-157.940 305.566  0.00  0.00    +0.000 C 
ATOM     22  C   UNL     1     -47.108-158.593 304.509  0.00  0.00    +0.000 C 
ENDBRANCH  19  20
ENDBRANCH  13  19
ENDBRANCH   1  14
TORSDOF 6
ENDMDL
MODEL 3
REMARK VINA RESULT:    -8.685      2.387      3.179
REMARK INTER + INTRA:         -12.228
REMARK INTER:                 -11.839
REMARK INTRA:                  -0.390
REMARK UNBOUND:                -0.497
REMARK  Name = 
REMARK  7 active torsions:
REMARK  status: ('A' for Active; 'I' for Inactive)
REMARK    1  A    between atoms: C_2  and  C_3
REMARK    2  A    between atoms: C_3  and  N_4
REMARK    3  A    between atoms: N_4  and  C_5
REMARK    4  A    between atoms: C_5  and  C_6
REMARK    5  A    between atoms: C_7  and  C_8
REMARK    6  A    between atoms: C_9  and  C_11
REMARK    7  A    between atoms: N_13  and  C_14
REMARK                            x       y       z     vdW  Elec       q    Type
REMARK                         _______ _______ _______ _____ _____    ______ ____
ROOT
ATOM      1  C   UNL     1     -41.089-159.656 308.710  0.00  0.00    +0.000 A 
ATOM      2  C   UNL     1     -42.009-158.633 308.839  0.00  0.00    +0.000 A 
ATOM      3  N   UNL     1     -41.999-157.972 307.628  0.00  0.00    +0.000 N 
ATOM      4  N   UNL     1     -40.942-158.406 306.905  0.00  0.00    +0.000 NA
ATOM      5  N   UNL     1     -40.336-159.376 307.594  0.00  0.00    +0.000 NA
ENDROOT
BRANCH   3   6
ATOM      6  C   UNL     1     -42.945-157.025 307.131  0.00  0.00    +0.000 A 
ATOM      7  C   UNL     1     -43.511-156.080 308.004  0.00  0.00    +0.000 A 
ATOM      8  C   UNL     1     -44.513-155.206 307.558  0.00  0.00    +0.000 A 
ATOM      9  C   UNL     1     -44.950-155.261 306.238  0.00  0.00    +0.000 A 
ATOM     10 CL   UNL     1     -46.172-154.173 305.700  0.00  0.00    +0.000 Cl
ATOM     11  C   UNL     1     -44.402-156.197 305.359  0.00  0.00    +0.000 A 
ATOM     12  C   UNL     1     -43.397-157.078 305.799  0.00  0.00    +0.000 A 
ENDBRANCH   3   6
BRANCH   1  14
ATOM     13  N   UNL     1     -40.420-162.032 309.161  0.00  0.00    +0.000 N 
ATOM     14  C   UNL     1     -40.829-160.762 309.639  0.00  0.00    +0.000 C 
ATOM     15  O   UNL     1     -40.996-160.562 310.859  0.00  0.00    +0.000 OA
BRANCH  13  16
ATOM     16  C   UNL     1     -40.122-163.090 310.140  0.00  0.00    +0.000 C 
BRANCH  16  18
ATOM     17  C   UNL     1     -41.037-165.360 309.623  0.00  0.00    +0.000 C 
ATOM     18  C   UNL     1     -41.191-164.149 310.180  0.00  0.00    +0.000 C 
ENDBRANCH  16  18
ENDBRANCH  13  16
BRANCH  13  19
ATOM     19  C   UNL     1     -40.167-162.364 307.750  0.00  0.00    +0.000 C 
BRANCH  19  20
ATOM     20  C   UNL     1     -38.793-162.938 307.556  0.00  0.00    +0.000 C 
ATOM     21  C   UNL     1     -38.568-164.149 307.014  0.00  0.00    +0.000 C 
ATOM     22  C   UNL     1     -37.234-164.825 307.054  0.00  0.00    +0.000 C 
ENDBRANCH  19  20
ENDBRANCH  13  19
ENDBRANCH   1  14
TORSDOF 6
ENDMDL
MODEL 4
REMARK VINA RESULT:    -8.671      3.764      7.836
REMARK INTER + INTRA:         -12.209
REMARK INTER:                 -11.898
REMARK INTRA:                  -0.311
REMARK UNBOUND:                -0.497
REMARK  Name = 
REMARK  7 active torsions:
REMARK  status: ('A' for Active; 'I' for Inactive)
REMARK    1  A    between atoms: C_2  and  C_3
REMARK    2  A    between atoms: C_3  and  N_4
REMARK    3  A    between atoms: N_4  and  C_5
REMARK    4  A    between atoms: C_5  and  C_6
REMARK    5  A    between atoms: C_7  and  C_8
REMARK    6  A    between atoms: C_9  and  C_11
REMARK    7  A    between atoms: N_13  and  C_14
REMARK                            x       y       z     vdW  Elec       q    Type
REMARK                         _______ _______ _______ _____ _____    ______ ____
ROOT
ATOM      1  C   UNL     1     -42.541-157.520 308.614  0.00  0.00    +0.000 A 
ATOM      2  C   UNL     1     -41.741-158.512 308.080  0.00  0.00    +0.000 A 
ATOM      3  N   UNL     1     -41.614-159.459 309.076  0.00  0.00    +0.000 N 
ATOM      4  N   UNL     1     -42.087-158.942 310.231  0.00  0.00    +0.000 NA
ATOM      5  N   UNL     1     -42.580-157.728 309.973  0.00  0.00    +0.000 NA
ENDROOT
BRANCH   3   6
ATOM      6  C   UNL     1     -41.131-160.799 308.963  0.00  0.00    +0.000 A 
ATOM      7  C   UNL     1     -41.470-161.747 309.943  0.00  0.00    +0.000 A 
ATOM      8  C   UNL     1     -40.928-163.040 309.904  0.00  0.00    +0.000 A 
ATOM      9  C   UNL     1     -40.052-163.398 308.883  0.00  0.00    +0.000 A 
ATOM     10 CL   UNL     1     -39.403-164.993 308.839  0.00  0.00    +0.000 Cl
ATOM     11  C   UNL     1     -39.700-162.466 307.905  0.00  0.00    +0.000 A 
ATOM     12  C   UNL     1     -40.239-161.167 307.938  0.00  0.00    +0.000 A 
ENDBRANCH   3   6
BRANCH   1  14
ATOM     13  N   UNL     1     -44.347-156.485 307.213  0.00  0.00    +0.000 N 
ATOM     14  C   UNL     1     -43.129-156.364 307.927  0.00  0.00    +0.000 C 
ATOM     15  O   UNL     1     -42.520-155.276 307.973  0.00  0.00    +0.000 OA
BRANCH  13  16
ATOM     16  C   UNL     1     -44.918-155.281 306.588  0.00  0.00    +0.000 C 
BRANCH  16  18
ATOM     17  C   UNL     1     -43.936-155.322 304.287  0.00  0.00    +0.000 C 
ATOM     18  C   UNL     1     -44.043-154.737 305.491  0.00  0.00    +0.000 C 
ENDBRANCH  16  18
ENDBRANCH  13  16
BRANCH  13  19
ATOM     19  C   UNL     1     -45.157-157.709 307.122  0.00  0.00    +0.000 C 
BRANCH  19  20
ATOM     20  C   UNL     1     -45.871-157.803 305.805  0.00  0.00    +0.000 C 
ATOM     21  C   UNL     1     -46.833-158.709 305.548  0.00  0.00    +0.000 C 
ATOM     22  C   UNL     1     -47.359-158.971 304.173  0.00  0.00    +0.000 C 
ENDBRANCH  19  20
ENDBRANCH  13  19
ENDBRANCH   1  14
TORSDOF 6
ENDMDL
MODEL 5
REMARK VINA RESULT:    -8.537      1.896      3.342
REMARK INTER + INTRA:         -12.029
REMARK INTER:                 -12.015
REMARK INTRA:                  -0.014
REMARK UNBOUND:                -0.497
REMARK  Name = 
REMARK  7 active torsions:
REMARK  status: ('A' for Active; 'I' for Inactive)
REMARK    1  A    between atoms: C_2  and  C_3
REMARK    2  A    between atoms: C_3  and  N_4
REMARK    3  A    between atoms: N_4  and  C_5
REMARK    4  A    between atoms: C_5  and  C_6
REMARK    5  A    between atoms: C_7  and  C_8
REMARK    6  A    between atoms: C_9  and  C_11
REMARK    7  A    between atoms: N_13  and  C_14
REMARK                            x       y       z     vdW  Elec       q    Type
REMARK                         _______ _______ _______ _____ _____    ______ ____
ROOT
ATOM      1  C   UNL     1     -40.790-160.284 308.614  0.00  0.00    +0.000 A 
ATOM      2  C   UNL     1     -41.605-159.192 308.844  0.00  0.00    +0.000 A 
ATOM      3  N   UNL     1     -41.745-158.571 307.620  0.00  0.00    +0.000 N 
ATOM      4  N   UNL     1     -40.851-159.104 306.757  0.00  0.00    +0.000 NA
ATOM      5  N   UNL     1     -40.210-160.096 307.381  0.00  0.00    +0.000 NA
ENDROOT
BRANCH   3   6
ATOM      6  C   UNL     1     -42.692-157.572 307.240  0.00  0.00    +0.000 A 
ATOM      7  C   UNL     1     -43.559-157.030 308.204  0.00  0.00    +0.000 A 
ATOM      8  C   UNL     1     -44.560-156.121 307.834  0.00  0.00    +0.000 A 
ATOM      9  C   UNL     1     -44.697-155.738 306.503  0.00  0.00    +0.000 A 
ATOM     10 CL   UNL     1     -45.922-154.610 306.063  0.00  0.00    +0.000 Cl
ATOM     11  C   UNL     1     -43.847-156.271 305.532  0.00  0.00    +0.000 A 
ATOM     12  C   UNL     1     -42.841-157.184 305.895  0.00  0.00    +0.000 A 
ENDBRANCH   3   6
BRANCH   1  14
ATOM     13  N   UNL     1     -41.370-161.777 310.546  0.00  0.00    +0.000 N 
ATOM     14  C   UNL     1     -40.460-161.378 309.536  0.00  0.00    +0.000 C 
ATOM     15  O   UNL     1     -39.350-161.936 309.418  0.00  0.00    +0.000 OA
BRANCH  13  16
ATOM     16  C   UNL     1     -41.010-162.914 311.409  0.00  0.00    +0.000 C 
BRANCH  16  18
ATOM     17  C   UNL     1     -41.136-164.841 309.819  0.00  0.00    +0.000 C 
ATOM     18  C   UNL     1     -41.589-164.212 310.915  0.00  0.00    +0.000 C 
ENDBRANCH  16  18
ENDBRANCH  13  16
BRANCH  13  19
ATOM     19  C   UNL     1     -42.711-161.207 310.751  0.00  0.00    +0.000 C 
BRANCH  19  20
ATOM     20  C   UNL     1     -42.735-160.256 311.912  0.00  0.00    +0.000 C 
ATOM     21  C   UNL     1     -43.658-160.307 312.891  0.00  0.00    +0.000 C 
ATOM     22  C   UNL     1     -43.839-159.218 313.899  0.00  0.00    +0.000 C 
ENDBRANCH  19  20
ENDBRANCH  13  19
ENDBRANCH   1  14
TORSDOF 6
ENDMDL
MODEL 6
REMARK VINA RESULT:    -8.406      2.783      4.413
REMARK INTER + INTRA:         -11.852
REMARK INTER:                 -11.581
REMARK INTRA:                  -0.271
REMARK UNBOUND:                -0.497
REMARK  Name = 
REMARK  7 active torsions:
REMARK  status: ('A' for Active; 'I' for Inactive)
REMARK    1  A    between atoms: C_2  and  C_3
REMARK    2  A    between atoms: C_3  and  N_4
REMARK    3  A    between atoms: N_4  and  C_5
REMARK    4  A    between atoms: C_5  and  C_6
REMARK    5  A    between atoms: C_7  and  C_8
REMARK    6  A    between atoms: C_9  and  C_11
REMARK    7  A    between atoms: N_13  and  C_14
REMARK                            x       y       z     vdW  Elec       q    Type
REMARK                         _______ _______ _______ _____ _____    ______ ____
ROOT
ATOM      1  C   UNL     1     -40.152-161.001 308.226  0.00  0.00    +0.000 A 
ATOM      2  C   UNL     1     -40.836-160.350 307.217  0.00  0.00    +0.000 A 
ATOM      3  N   UNL     1     -41.276-159.166 307.774  0.00  0.00    +0.000 N 
ATOM      4  N   UNL     1     -41.098-159.223 309.112  0.00  0.00    +0.000 NA
ATOM      5  N   UNL     1     -40.486-160.373 309.404  0.00  0.00    +0.000 NA
ENDROOT
BRANCH   3   6
ATOM      6  C   UNL     1     -41.786-158.012 307.105  0.00  0.00    +0.000 A 
ATOM      7  C   UNL     1     -41.562-157.848 305.728  0.00  0.00    +0.000 A 
ATOM      8  C   UNL     1     -41.970-156.677 305.072  0.00  0.00    +0.000 A 
ATOM      9  C   UNL     1     -42.611-155.667 305.783  0.00  0.00    +0.000 A 
ATOM     10 CL   UNL     1     -43.118-154.240 304.963  0.00  0.00    +0.000 Cl
ATOM     11  C   UNL     1     -42.837-155.812 307.152  0.00  0.00    +0.000 A 
ATOM     12  C   UNL     1     -42.430-156.984 307.818  0.00  0.00    +0.000 A 
ENDBRANCH   3   6
BRANCH   1  14
ATOM     13  N   UNL     1     -39.769-163.430 308.725  0.00  0.00    +0.000 N 
ATOM     14  C   UNL     1     -39.338-162.219 308.129  0.00  0.00    +0.000 C 
ATOM     15  O   UNL     1     -38.250-162.156 307.523  0.00  0.00    +0.000 OA
BRANCH  13  16
ATOM     16  C   UNL     1     -38.940-164.634 308.551  0.00  0.00    +0.000 C 
BRANCH  16  18
ATOM     17  C   UNL     1     -38.634-165.449 306.206  0.00  0.00    +0.000 C 
ATOM     18  C   UNL     1     -39.345-165.438 307.345  0.00  0.00    +0.000 C 
ENDBRANCH  16  18
ENDBRANCH  13  16
BRANCH  13  19
ATOM     19  C   UNL     1     -41.045-163.618 309.433  0.00  0.00    +0.000 C 
BRANCH  19  20
ATOM     20  C   UNL     1     -40.892-163.407 310.912  0.00  0.00    +0.000 C 
ATOM     21  C   UNL     1     -41.489-162.403 311.581  0.00  0.00    +0.000 C 
ATOM     22  C   UNL     1     -41.138-162.040 312.989  0.00  0.00    +0.000 C 
ENDBRANCH  19  20
ENDBRANCH  13  19
ENDBRANCH   1  14
TORSDOF 6
ENDMDL
MODEL 7
REMARK VINA RESULT:    -8.393      2.225      3.191
REMARK INTER + INTRA:         -11.834
REMARK INTER:                 -11.458
REMARK INTRA:                  -0.376
REMARK UNBOUND:                -0.497
REMARK  Name = 
REMARK  7 active torsions:
REMARK  status: ('A' for Active; 'I' for Inactive)
REMARK    1  A    between atoms: C_2  and  C_3
REMARK    2  A    between atoms: C_3  and  N_4
REMARK    3  A    between atoms: N_4  and  C_5
REMARK    4  A    between atoms: C_5  and  C_6
REMARK    5  A    between atoms: C_7  and  C_8
REMARK    6  A    between atoms: C_9  and  C_11
REMARK    7  A    between atoms: N_13  and  C_14
REMARK                            x       y       z     vdW  Elec       q    Type
REMARK                         _______ _______ _______ _____ _____    ______ ____
ROOT
ATOM      1  C   UNL     1     -41.904-159.992 310.453  0.00  0.00    +0.000 A 
ATOM      2  C   UNL     1     -42.420-159.586 309.237  0.00  0.00    +0.000 A 
ATOM      3  N   UNL     1     -42.479-158.209 309.303  0.00  0.00    +0.000 N 
ATOM      4  N   UNL     1     -42.264-157.825 310.580  0.00  0.00    +0.000 NA
ATOM      5  N   UNL     1     -41.992-158.914 311.303  0.00  0.00    +0.000 NA
ENDROOT
BRANCH   3   6
ATOM      6  C   UNL     1     -42.671-157.281 308.233  0.00  0.00    +0.000 A 
ATOM      7  C   UNL     1     -42.320-157.646 306.923  0.00  0.00    +0.000 A 
ATOM      8  C   UNL     1     -42.409-156.719 305.875  0.00  0.00    +0.000 A 
ATOM      9  C   UNL     1     -42.856-155.425 306.125  0.00  0.00    +0.000 A 
ATOM     10 CL   UNL     1     -42.973-154.299 304.827  0.00  0.00    +0.000 Cl
ATOM     11  C   UNL     1     -43.204-155.044 307.422  0.00  0.00    +0.000 A 
ATOM     12  C   UNL     1     -43.117-155.970 308.479  0.00  0.00    +0.000 A 
ENDBRANCH   3   6
BRANCH   1  14
ATOM     13  N   UNL     1     -40.749-162.164 309.956  0.00  0.00    +0.000 N 
ATOM     14  C   UNL     1     -41.476-161.339 310.851  0.00  0.00    +0.000 C 
ATOM     15  O   UNL     1     -41.783-161.745 311.990  0.00  0.00    +0.000 OA
BRANCH  13  16
ATOM     16  C   UNL     1     -40.300-163.484 310.426  0.00  0.00    +0.000 C 
BRANCH  16  18
ATOM     17  C   UNL     1     -40.814-165.625 309.237  0.00  0.00    +0.000 C 
ATOM     18  C   UNL     1     -41.222-164.591 309.989  0.00  0.00    +0.000 C 
ENDBRANCH  16  18
ENDBRANCH  13  16
BRANCH  13  19
ATOM     19  C   UNL     1     -40.312-161.771 308.608  0.00  0.00    +0.000 C 
BRANCH  19  20
ATOM     20  C   UNL     1     -38.964-162.344 308.276  0.00  0.00    +0.000 C 
ATOM     21  C   UNL     1     -38.761-163.223 307.277  0.00  0.00    +0.000 C 
ATOM     22  C   UNL     1     -37.484-163.984 307.109  0.00  0.00    +0.000 C 
ENDBRANCH  19  20
ENDBRANCH  13  19
ENDBRANCH   1  14
TORSDOF 6
ENDMDL
MODEL 8
REMARK VINA RESULT:    -8.262      1.422      3.050
REMARK INTER + INTRA:         -11.657
REMARK INTER:                 -11.335
REMARK INTRA:                  -0.321
REMARK UNBOUND:                -0.497
REMARK  Name = 
REMARK  7 active torsions:
REMARK  status: ('A' for Active; 'I' for Inactive)
REMARK    1  A    between atoms: C_2  and  C_3
REMARK    2  A    between atoms: C_3  and  N_4
REMARK    3  A    between atoms: N_4  and  C_5
REMARK    4  A    between atoms: C_5  and  C_6
REMARK    5  A    between atoms: C_7  and  C_8
REMARK    6  A    between atoms: C_9  and  C_11
REMARK    7  A    between atoms: N_13  and  C_14
REMARK                            x       y       z     vdW  Elec       q    Type
REMARK                         _______ _______ _______ _____ _____    ______ ____
ROOT
ATOM      1  C   UNL     1     -41.735-159.390 309.867  0.00  0.00    +0.000 A 
ATOM      2  C   UNL     1     -42.501-159.037 308.773  0.00  0.00    +0.000 A 
ATOM      3  N   UNL     1     -42.812-157.705 308.955  0.00  0.00    +0.000 N 
ATOM      4  N   UNL     1     -42.479-157.349 310.215  0.00  0.00    +0.000 NA
ATOM      5  N   UNL     1     -41.895-158.396 310.803  0.00  0.00    +0.000 NA
ENDROOT
BRANCH   3   6
ATOM      6  C   UNL     1     -43.341-156.784 308.000  0.00  0.00    +0.000 A 
ATOM      7  C   UNL     1     -44.597-157.025 307.419  0.00  0.00    +0.000 A 
ATOM      8  C   UNL     1     -45.091-156.187 306.409  0.00  0.00    +0.000 A 
ATOM      9  C   UNL     1     -44.340-155.097 305.979  0.00  0.00    +0.000 A 
ATOM     10 CL   UNL     1     -44.963-154.067 304.747  0.00  0.00    +0.000 Cl
ATOM     11  C   UNL     1     -43.088-154.846 306.542  0.00  0.00    +0.000 A 
ATOM     12  C   UNL     1     -42.585-155.683 307.555  0.00  0.00    +0.000 A 
ENDBRANCH   3   6
BRANCH   1  14
ATOM     13  N   UNL     1     -41.143-161.360 311.306  0.00  0.00    +0.000 N 
ATOM     14  C   UNL     1     -41.001-160.642 310.092  0.00  0.00    +0.000 C 
ATOM     15  O   UNL     1     -40.234-161.047 309.196  0.00  0.00    +0.000 OA
BRANCH  13  16
ATOM     16  C   UNL     1     -40.424-162.635 311.457  0.00  0.00    +0.000 C 
BRANCH  16  18
ATOM     17  C   UNL     1     -41.301-164.408 309.926  0.00  0.00    +0.000 C 
ATOM     18  C   UNL     1     -41.291-163.822 311.133  0.00  0.00    +0.000 C 
ENDBRANCH  16  18
ENDBRANCH  13  16
BRANCH  13  19
ATOM     19  C   UNL     1     -42.040-160.985 312.411  0.00  0.00    +0.000 C 
BRANCH  19  20
ATOM     20  C   UNL     1     -41.430-161.300 313.747  0.00  0.00    +0.000 C 
ATOM     21  C   UNL     1     -42.121-161.850 314.763  0.00  0.00    +0.000 C 
ATOM     22  C   UNL     1     -41.593-161.926 316.160  0.00  0.00    +0.000 C 
ENDBRANCH  19  20
ENDBRANCH  13  19
ENDBRANCH   1  14
TORSDOF 6
ENDMDL
MODEL 9
REMARK VINA RESULT:    -8.239      4.161      7.338
REMARK INTER + INTRA:         -11.626
REMARK INTER:                 -11.414
REMARK INTRA:                  -0.212
REMARK UNBOUND:                -0.497
REMARK  Name = 
REMARK  7 active torsions:
REMARK  status: ('A' for Active; 'I' for Inactive)
REMARK    1  A    between atoms: C_2  and  C_3
REMARK    2  A    between atoms: C_3  and  N_4
REMARK    3  A    between atoms: N_4  and  C_5
REMARK    4  A    between atoms: C_5  and  C_6
REMARK    5  A    between atoms: C_7  and  C_8
REMARK    6  A    between atoms: C_9  and  C_11
REMARK    7  A    between atoms: N_13  and  C_14
REMARK                            x       y       z     vdW  Elec       q    Type
REMARK                         _______ _______ _______ _____ _____    ______ ____
ROOT
ATOM      1  C   UNL     1     -40.551-160.791 309.880  0.00  0.00    +0.000 A 
ATOM      2  C   UNL     1     -40.230-162.125 309.716  0.00  0.00    +0.000 A 
ATOM      3  N   UNL     1     -39.704-162.224 308.444  0.00  0.00    +0.000 N 
ATOM      4  N   UNL     1     -39.942-161.069 307.785  0.00  0.00    +0.000 NA
ATOM      5  N   UNL     1     -40.530-160.219 308.630  0.00  0.00    +0.000 NA
ENDROOT
BRANCH   3   6
ATOM      6  C   UNL     1     -38.968-163.308 307.875  0.00  0.00    +0.000 A 
ATOM      7  C   UNL     1     -39.345-164.632 308.158  0.00  0.00    +0.000 A 
ATOM      8  C   UNL     1     -38.579-165.708 307.689  0.00  0.00    +0.000 A 
ATOM      9  C   UNL     1     -37.437-165.473 306.929  0.00  0.00    +0.000 A 
ATOM     10 CL   UNL     1     -36.512-166.804 306.348  0.00  0.00    +0.000 Cl
ATOM     11  C   UNL     1     -37.046-164.164 306.643  0.00  0.00    +0.000 A 
ATOM     12  C   UNL     1     -37.810-163.078 307.110  0.00  0.00    +0.000 A 
ENDBRANCH   3   6
BRANCH   1  14
ATOM     13  N   UNL     1     -42.031-159.153 311.074  0.00  0.00    +0.000 N 
ATOM     14  C   UNL     1     -40.985-160.109 311.106  0.00  0.00    +0.000 C 
ATOM     15  O   UNL     1     -40.397-160.378 312.173  0.00  0.00    +0.000 OA
BRANCH  13  16
ATOM     16  C   UNL     1     -42.460-158.538 312.341  0.00  0.00    +0.000 C 
BRANCH  16  18
ATOM     17  C   UNL     1     -43.593-160.194 313.834  0.00  0.00    +0.000 C 
ATOM     18  C   UNL     1     -43.673-159.213 312.922  0.00  0.00    +0.000 C 
ENDBRANCH  16  18
ENDBRANCH  13  16
BRANCH  13  19
ATOM     19  C   UNL     1     -42.806-158.786 309.879  0.00  0.00    +0.000 C 
BRANCH  19  20
ATOM     20  C   UNL     1     -42.559-157.360 309.477  0.00  0.00    +0.000 C 
ATOM     21  C   UNL     1     -43.291-156.716 308.549  0.00  0.00    +0.000 C 
ATOM     22  C   UNL     1     -42.892-155.398 307.967  0.00  0.00    +0.000 C 
ENDBRANCH  19  20
ENDBRANCH  13  19
ENDBRANCH   1  14
TORSDOF 6
ENDMDL
MODEL 10
REMARK VINA RESULT:    -7.815      4.009      7.788
REMARK INTER + INTRA:         -11.054
REMARK INTER:                 -10.290
REMARK INTRA:                  -0.764
REMARK UNBOUND:                -0.497
REMARK  Name = 
REMARK  7 active torsions:
REMARK  status: ('A' for Active; 'I' for Inactive)
REMARK    1  A    between atoms: C_2  and  C_3
REMARK    2  A    between atoms: C_3  and  N_4
REMARK    3  A    between atoms: N_4  and  C_5
REMARK    4  A    between atoms: C_5  and  C_6
REMARK    5  A    between atoms: C_7  and  C_8
REMARK    6  A    between atoms: C_9  and  C_11
REMARK    7  A    between atoms: N_13  and  C_14
REMARK                            x       y       z     vdW  Elec       q    Type
REMARK                         _______ _______ _______ _____ _____    ______ ____
ROOT
ATOM      1  C   UNL     1     -41.840-160.393 309.836  0.00  0.00    +0.000 A 
ATOM      2  C   UNL     1     -40.558-160.849 309.601  0.00  0.00    +0.000 A 
ATOM      3  N   UNL     1     -40.689-162.197 309.332  0.00  0.00    +0.000 N 
ATOM      4  N   UNL     1     -41.944-162.583 309.650  0.00  0.00    +0.000 NA
ATOM      5  N   UNL     1     -42.628-161.503 310.035  0.00  0.00    +0.000 NA
ENDROOT
BRANCH   3   6
ATOM      6  C   UNL     1     -39.724-163.080 308.758  0.00  0.00    +0.000 A 
ATOM      7  C   UNL     1     -38.783-162.585 307.841  0.00  0.00    +0.000 A 
ATOM      8  C   UNL     1     -37.891-163.451 307.193  0.00  0.00    +0.000 A 
ATOM      9  C   UNL     1     -37.926-164.816 307.462  0.00  0.00    +0.000 A 
ATOM     10 CL   UNL     1     -36.817-165.869 306.669  0.00  0.00    +0.000 Cl
ATOM     11  C   UNL     1     -38.859-165.326 308.367  0.00  0.00    +0.000 A 
ATOM     12  C   UNL     1     -39.757-164.462 309.021  0.00  0.00    +0.000 A 
ENDBRANCH   3   6
BRANCH   1  14
ATOM     13  N   UNL     1     -42.441-158.152 308.881  0.00  0.00    +0.000 N 
ATOM     14  C   UNL     1     -42.292-159.006 310.002  0.00  0.00    +0.000 C 
ATOM     15  O   UNL     1     -42.523-158.593 311.156  0.00  0.00    +0.000 OA
BRANCH  13  16
ATOM     16  C   UNL     1     -42.947-156.787 309.100  0.00  0.00    +0.000 C 
BRANCH  16  18
ATOM     17  C   UNL     1     -44.310-155.258 307.662  0.00  0.00    +0.000 C 
ATOM     18  C   UNL     1     -44.125-156.466 308.219  0.00  0.00    +0.000 C 
ENDBRANCH  16  18
ENDBRANCH  13  16
BRANCH  13  19
ATOM     19  C   UNL     1     -42.225-158.547 307.481  0.00  0.00    +0.000 C 
BRANCH  19  20
ATOM     20  C   UNL     1     -41.138-157.733 306.839  0.00  0.00    +0.000 C 
ATOM     21  C   UNL     1     -41.323-157.001 305.724  0.00  0.00    +0.000 C 
ATOM     22  C   UNL     1     -40.195-156.403 304.946  0.00  0.00    +0.000 C 
ENDBRANCH  19  20
ENDBRANCH  13  19
ENDBRANCH   1  14
TORSDOF 6
ENDMDL
