MODEL 1
REMARK VINA RESULT:    -9.254      0.000      0.000
REMARK INTER + INTRA:         -13.493
REMARK INTER:                 -13.040
REMARK INTRA:                  -0.453
REMARK UNBOUND:                -0.453
REMARK  Name = 
REMARK  9 active torsions:
REMARK  status: ('A' for Active; 'I' for Inactive)
REMARK    1  A    between atoms: C_1  and  C_2
REMARK    2  A    between atoms: C_2  and  C_3
REMARK    3  A    between atoms: C_3  and  C_4
REMARK    4  A    between atoms: C_3  and  C_5
REMARK    5  A    between atoms: C_5  and  N_6
REMARK    6  A    between atoms: C_10  and  C_11
REMARK    7  A    between atoms: C_11  and  O_12
REMARK    8  A    between atoms: O_12  and  C_13
REMARK    9  A    between atoms: C_13  and  C_15
REMARK                            x       y       z     vdW  Elec       q    Type
REMARK                         _______ _______ _______ _____ _____    ______ ____
ROOT
ATOM      1  C   UNL     1     -42.033-157.280 306.666  0.00  0.00    +0.000 C 
ENDROOT
BRANCH   1   6
ATOM      2  N   UNL     1     -45.816-156.987 306.144  0.00  0.00    +0.000 NA
ATOM      3  C   UNL     1     -45.862-155.525 306.053  0.00  0.00    +0.000 C 
ATOM      4  C   UNL     1     -44.644-154.945 305.321  0.00  0.00    +0.000 C 
ATOM      5  O   UNL     1     -43.400-155.346 305.942  0.00  0.00    +0.000 OA
ATOM      6  C   UNL     1     -43.320-156.784 305.998  0.00  0.00    +0.000 C 
ATOM      7  C   UNL     1     -44.543-157.341 306.753  0.00  0.00    +0.000 C 
BRANCH   2   8
ATOM      8  C   UNL     1     -45.911-157.714 304.871  0.00  0.00    +0.000 C 
BRANCH   8   9
ATOM      9  C   UNL     1     -46.932-158.843 305.018  0.00  0.00    +0.000 C 
ATOM     10  C   UNL     1     -46.895-159.692 303.746  0.00  0.00    +0.000 C 
BRANCH   9  12
ATOM     11  C   UNL     1     -49.430-159.222 305.061  0.00  0.00    +0.000 C 
ATOM     12  C   UNL     1     -48.310-158.230 305.280  0.00  0.00    +0.000 C 
ENDBRANCH   9  12
ENDBRANCH   8   9
ENDBRANCH   2   8
ENDBRANCH   1   6
BRANCH   1  13
ATOM     13  O   UNL     1     -42.323-158.207 307.749  0.00  0.00    +0.000 OA
BRANCH  13  14
ATOM     14  C   UNL     1     -41.326-159.044 308.173  0.00  0.00    +0.000 C 
ATOM     15  O   UNL     1     -40.346-159.372 307.502  0.00  0.00    +0.000 OA
BRANCH  14  16
ATOM     16  C   UNL     1     -41.502-159.529 309.525  0.00  0.00    +0.000 A 
ATOM     17  C   UNL     1     -41.558-158.732 310.656  0.00  0.00    +0.000 A 
ATOM     18  S   UNL     1     -41.552-159.656 312.103  0.00  0.00    +0.000 S 
ATOM     19  C   UNL     1     -41.476-161.112 311.228  0.00  0.00    +0.000 A 
ATOM     20  C   UNL     1     -41.496-160.911 309.865  0.00  0.00    +0.000 A 
ATOM     21  C   UNL     1     -41.414-162.033 308.884  0.00  0.00    +0.000 C 
ATOM     22  C   UNL     1     -41.841-163.346 309.533  0.00  0.00    +0.000 C 
ATOM     23  C   UNL     1     -41.118-163.561 310.868  0.00  0.00    +0.000 C 
ATOM     24  C   UNL     1     -41.426-162.452 311.892  0.00  0.00    +0.000 C 
ENDBRANCH  14  16
ENDBRANCH  13  14
ENDBRANCH   1  13
TORSDOF 7
ENDMDL
MODEL 2
REMARK VINA RESULT:    -9.134      1.366      2.012
REMARK INTER + INTRA:         -13.325
REMARK INTER:                 -12.863
REMARK INTRA:                  -0.461
REMARK UNBOUND:                -0.453
REMARK  Name = 
REMARK  9 active torsions:
REMARK  status: ('A' for Active; 'I' for Inactive)
REMARK    1  A    between atoms: C_1  and  C_2
REMARK    2  A    between atoms: C_2  and  C_3
REMARK    3  A    between atoms: C_3  and  C_4
REMARK    4  A    between atoms: C_3  and  C_5
REMARK    5  A    between atoms: C_5  and  N_6
REMARK    6  A    between atoms: C_10  and  C_11
REMARK    7  A    between atoms: C_11  and  O_12
REMARK    8  A    between atoms: O_12  and  C_13
REMARK    9  A    between atoms: C_13  and  C_15
REMARK                            x       y       z     vdW  Elec       q    Type
REMARK                         _______ _______ _______ _____ _____    ______ ____
ROOT
ATOM      1  C   UNL     1     -42.841-157.091 308.256  0.00  0.00    +0.000 C 
ENDROOT
BRANCH   1   6
ATOM      2  N   UNL     1     -45.962-156.530 306.107  0.00  0.00    +0.000 NA
ATOM      3  C   UNL     1     -45.702-155.122 305.795  0.00  0.00    +0.000 C 
ATOM      4  C   UNL     1     -44.208-154.834 305.588  0.00  0.00    +0.000 C 
ATOM      5  O   UNL     1     -43.420-155.222 306.739  0.00  0.00    +0.000 OA
ATOM      6  C   UNL     1     -43.631-156.617 307.031  0.00  0.00    +0.000 C 
ATOM      7  C   UNL     1     -45.135-156.878 307.253  0.00  0.00    +0.000 C 
BRANCH   2   8
ATOM      8  C   UNL     1     -45.660-157.492 305.039  0.00  0.00    +0.000 C 
BRANCH   8   9
ATOM      9  C   UNL     1     -46.683-158.628 305.090  0.00  0.00    +0.000 C 
ATOM     10  C   UNL     1     -46.640-159.372 303.754  0.00  0.00    +0.000 C 
BRANCH   9  12
ATOM     11  C   UNL     1     -49.184-158.990 305.053  0.00  0.00    +0.000 C 
ATOM     12  C   UNL     1     -48.062-158.036 305.392  0.00  0.00    +0.000 C 
ENDBRANCH   9  12
ENDBRANCH   8   9
ENDBRANCH   2   8
ENDBRANCH   1   6
BRANCH   1  13
ATOM     13  O   UNL     1     -42.575-158.520 308.192  0.00  0.00    +0.000 OA
BRANCH  13  14
ATOM     14  C   UNL     1     -41.314-158.933 307.857  0.00  0.00    +0.000 C 
ATOM     15  O   UNL     1     -40.581-158.373 307.040  0.00  0.00    +0.000 OA
BRANCH  14  16
ATOM     16  C   UNL     1     -40.875-160.115 308.567  0.00  0.00    +0.000 A 
ATOM     17  C   UNL     1     -40.572-161.331 307.977  0.00  0.00    +0.000 A 
ATOM     18  S   UNL     1     -40.301-162.567 309.138  0.00  0.00    +0.000 S 
ATOM     19  C   UNL     1     -40.585-161.488 310.421  0.00  0.00    +0.000 A 
ATOM     20  C   UNL     1     -40.841-160.206 309.986  0.00  0.00    +0.000 A 
ATOM     21  C   UNL     1     -41.146-159.083 310.922  0.00  0.00    +0.000 C 
ATOM     22  C   UNL     1     -40.622-159.393 312.321  0.00  0.00    +0.000 C 
ATOM     23  C   UNL     1     -41.062-160.790 312.776  0.00  0.00    +0.000 C 
ATOM     24  C   UNL     1     -40.527-161.906 311.857  0.00  0.00    +0.000 C 
ENDBRANCH  14  16
ENDBRANCH  13  14
ENDBRANCH   1  13
TORSDOF 7
ENDMDL
MODEL 3
REMARK VINA RESULT:    -8.823      3.244      7.613
REMARK INTER + INTRA:         -12.886
REMARK INTER:                 -12.659
REMARK INTRA:                  -0.227
REMARK UNBOUND:                -0.453
REMARK  Name = 
REMARK  9 active torsions:
REMARK  status: ('A' for Active; 'I' for Inactive)
REMARK    1  A    between atoms: C_1  and  C_2
REMARK    2  A    between atoms: C_2  and  C_3
REMARK    3  A    between atoms: C_3  and  C_4
REMARK    4  A    between atoms: C_3  and  C_5
REMARK    5  A    between atoms: C_5  and  N_6
REMARK    6  A    between atoms: C_10  and  C_11
REMARK    7  A    between atoms: C_11  and  O_12
REMARK    8  A    between atoms: O_12  and  C_13
REMARK    9  A    between atoms: C_13  and  C_15
REMARK                            x       y       z     vdW  Elec       q    Type
REMARK                         _______ _______ _______ _____ _____    ______ ____
ROOT
ATOM      1  C   UNL     1     -40.593-160.302 307.955  0.00  0.00    +0.000 C 
ENDROOT
BRANCH   1   6
ATOM      2  N   UNL     1     -42.164-161.579 311.207  0.00  0.00    +0.000 NA
ATOM      3  C   UNL     1     -41.372-162.807 311.306  0.00  0.00    +0.000 C 
ATOM      4  C   UNL     1     -39.924-162.610 310.836  0.00  0.00    +0.000 C 
ATOM      5  O   UNL     1     -39.861-162.110 309.479  0.00  0.00    +0.000 OA
ATOM      6  C   UNL     1     -40.599-160.877 309.375  0.00  0.00    +0.000 C 
ATOM      7  C   UNL     1     -42.053-161.104 309.835  0.00  0.00    +0.000 C 
BRANCH   2   8
ATOM      8  C   UNL     1     -41.755-160.476 312.087  0.00  0.00    +0.000 C 
BRANCH   8   9
ATOM      9  C   UNL     1     -42.703-159.294 311.875  0.00  0.00    +0.000 C 
ATOM     10  C   UNL     1     -41.863-158.024 311.738  0.00  0.00    +0.000 C 
BRANCH   9  12
ATOM     11  C   UNL     1     -43.584-160.445 313.945  0.00  0.00    +0.000 C 
ATOM     12  C   UNL     1     -43.682-159.231 313.051  0.00  0.00    +0.000 C 
ENDBRANCH   9  12
ENDBRANCH   8   9
ENDBRANCH   2   8
ENDBRANCH   1   6
BRANCH   1  13
ATOM     13  O   UNL     1     -40.729-158.853 307.971  0.00  0.00    +0.000 OA
BRANCH  13  14
ATOM     14  C   UNL     1     -41.305-158.242 306.890  0.00  0.00    +0.000 C 
ATOM     15  O   UNL     1     -40.886-158.310 305.734  0.00  0.00    +0.000 OA
BRANCH  14  16
ATOM     16  C   UNL     1     -42.498-157.487 307.209  0.00  0.00    +0.000 A 
ATOM     17  C   UNL     1     -43.382-157.789 308.232  0.00  0.00    +0.000 A 
ATOM     18  S   UNL     1     -44.795-156.814 308.179  0.00  0.00    +0.000 S 
ATOM     19  C   UNL     1     -44.233-155.993 306.800  0.00  0.00    +0.000 A 
ATOM     20  C   UNL     1     -42.982-156.416 306.406  0.00  0.00    +0.000 A 
ATOM     21  C   UNL     1     -42.284-155.864 305.207  0.00  0.00    +0.000 C 
ATOM     22  C   UNL     1     -42.847-154.494 304.842  0.00  0.00    +0.000 C 
ATOM     23  C   UNL     1     -44.379-154.527 304.778  0.00  0.00    +0.000 C 
ATOM     24  C   UNL     1     -45.018-154.912 306.126  0.00  0.00    +0.000 C 
ENDBRANCH  14  16
ENDBRANCH  13  14
ENDBRANCH   1  13
TORSDOF 7
ENDMDL
MODEL 4
REMARK VINA RESULT:    -8.625      3.456      8.278
REMARK INTER + INTRA:         -12.607
REMARK INTER:                 -12.262
REMARK INTRA:                  -0.345
REMARK UNBOUND:                -0.453
REMARK  Name = 
REMARK  9 active torsions:
REMARK  status: ('A' for Active; 'I' for Inactive)
REMARK    1  A    between atoms: C_1  and  C_2
REMARK    2  A    between atoms: C_2  and  C_3
REMARK    3  A    between atoms: C_3  and  C_4
REMARK    4  A    between atoms: C_3  and  C_5
REMARK    5  A    between atoms: C_5  and  N_6
REMARK    6  A    between atoms: C_10  and  C_11
REMARK    7  A    between atoms: C_11  and  O_12
REMARK    8  A    between atoms: O_12  and  C_13
REMARK    9  A    between atoms: C_13  and  C_15
REMARK                            x       y       z     vdW  Elec       q    Type
REMARK                         _______ _______ _______ _____ _____    ______ ____
ROOT
ATOM      1  C   UNL     1     -41.260-159.957 309.619  0.00  0.00    +0.000 C 
ENDROOT
BRANCH   1   6
ATOM      2  N   UNL     1     -39.697-163.451 309.465  0.00  0.00    +0.000 NA
ATOM      3  C   UNL     1     -40.864-164.181 309.966  0.00  0.00    +0.000 C 
ATOM      4  C   UNL     1     -42.188-163.589 309.459  0.00  0.00    +0.000 C 
ATOM      5  O   UNL     1     -42.317-162.189 309.800  0.00  0.00    +0.000 OA
ATOM      6  C   UNL     1     -41.198-161.449 309.275  0.00  0.00    +0.000 C 
ATOM      7  C   UNL     1     -39.883-162.049 309.812  0.00  0.00    +0.000 C 
BRANCH   2   8
ATOM      8  C   UNL     1     -39.470-163.517 308.015  0.00  0.00    +0.000 C 
BRANCH   8   9
ATOM      9  C   UNL     1     -38.454-164.622 307.722  0.00  0.00    +0.000 C 
ATOM     10  C   UNL     1     -37.393-164.058 306.775  0.00  0.00    +0.000 C 
BRANCH   9  12
ATOM     11  C   UNL     1     -38.398-166.509 306.042  0.00  0.00    +0.000 C 
ATOM     12  C   UNL     1     -39.192-165.827 307.132  0.00  0.00    +0.000 C 
ENDBRANCH   9  12
ENDBRANCH   8   9
ENDBRANCH   2   8
ENDBRANCH   1   6
BRANCH   1  13
ATOM     13  O   UNL     1     -42.489-159.352 309.126  0.00  0.00    +0.000 OA
BRANCH  13  14
ATOM     14  C   UNL     1     -42.488-158.012 308.848  0.00  0.00    +0.000 C 
ATOM     15  O   UNL     1     -42.565-157.116 309.690  0.00  0.00    +0.000 OA
BRANCH  14  16
ATOM     16  C   UNL     1     -42.375-157.704 307.439  0.00  0.00    +0.000 A 
ATOM     17  C   UNL     1     -41.300-158.044 306.634  0.00  0.00    +0.000 A 
ATOM     18  S   UNL     1     -41.403-157.329 305.076  0.00  0.00    +0.000 S 
ATOM     19  C   UNL     1     -42.873-156.571 305.471  0.00  0.00    +0.000 A 
ATOM     20  C   UNL     1     -43.304-156.882 306.742  0.00  0.00    +0.000 A 
ATOM     21  C   UNL     1     -44.556-156.319 307.329  0.00  0.00    +0.000 C 
ATOM     22  C   UNL     1     -45.501-155.849 306.228  0.00  0.00    +0.000 C 
ATOM     23  C   UNL     1     -44.769-154.958 305.217  0.00  0.00    +0.000 C 
ATOM     24  C   UNL     1     -43.613-155.693 304.511  0.00  0.00    +0.000 C 
ENDBRANCH  14  16
ENDBRANCH  13  14
ENDBRANCH   1  13
TORSDOF 7
ENDMDL
