MODEL 1
REMARK VINA RESULT:     0.000      0.000      0.000
REMARK INTER + INTRA:          -0.085
REMARK INTER:                   0.000
REMARK INTRA:                  -0.085
REMARK UNBOUND:                -0.085
REMARK  Name = 
REMARK  4 active torsions:
REMARK  status: ('A' for Active; 'I' for Inactive)
REMARK    1  A    between atoms: C_1  and  C_2
REMARK    2  A    between atoms: C_2  and  C_3
REMARK    3  A    between atoms: N_5  and  C_6
REMARK    4  A    between atoms: C_20  and  O_21
REMARK                            x       y       z     vdW  Elec       q    Type
REMARK                         _______ _______ _______ _____ _____    ______ ____
ROOT
ATOM      1  C   UNL     1     -45.349-303.528  65.224  0.00  0.00    +0.000 A 
ATOM      2  N   UNL     1     -45.895-303.767  64.007  0.00  0.00    +0.000 NA
ATOM      3  N   UNL     1     -45.411-302.690  63.315  0.00  0.00    +0.000 N 
ATOM      4  C   UNL     1     -45.741-302.544  61.921  0.00  0.00    +0.000 C 
ATOM      5  C   UNL     1     -44.625-301.810  64.034  0.00  0.00    +0.000 A 
ATOM      6  N   UNL     1     -44.035-300.633  63.721  0.00  0.00    +0.000 NA
ATOM      7  C   UNL     1     -43.347-300.217  64.785  0.00  0.00    +0.000 A 
ATOM      8  N   UNL     1     -42.670-299.031  64.896  0.00  0.00    +0.000 N 
ATOM      9  C   UNL     1     -43.245-297.783  64.417  0.00  0.00    +0.000 C 
ATOM     10  C   UNL     1     -43.089-296.762  65.550  0.00  0.00    +0.000 C 
ATOM     11  C   UNL     1     -41.599-296.506  65.896  0.00  0.00    +0.000 C 
ATOM     12  C   UNL     1     -40.968-297.879  66.254  0.00  0.00    +0.000 C 
ATOM     13  C   UNL     1     -41.230-298.944  65.168  0.00  0.00    +0.000 C 
ATOM     14  O   UNL     1     -40.882-295.970  64.759  0.00  0.00    +0.000 OA
ATOM     15  C   UNL     1     -41.328-294.683  64.320  0.00  0.00    +0.000 C 
ATOM     16  C   UNL     1     -41.231-293.638  65.424  0.00  0.00    +0.000 C 
ATOM     17  C   UNL     1     -41.938-294.108  66.689  0.00  0.00    +0.000 C 
ATOM     18  C   UNL     1     -41.444-295.506  67.084  0.00  0.00    +0.000 C 
ATOM     19  S   UNL     1     -43.516-301.288  66.208  0.00  0.00    +0.000 S 
ATOM     20  C   UNL     1     -44.530-302.338  65.284  0.00  0.00    +0.000 A 
ENDROOT
BRANCH   1  22
ATOM     21  C   UNL     1     -46.236-303.705  67.605  0.00  0.00    +0.000 C 
ATOM     22  C   UNL     1     -45.684-304.428  66.377  0.00  0.00    +0.000 C 
ENDBRANCH   1  22
BRANCH  18  23
ATOM     23  O   UNL     1     -42.122-295.931  68.263  0.00  0.00    +0.000 OA
ATOM     24  H   UNL     1     -42.207-295.173  68.865  0.00  0.00    +0.000 HD
ENDBRANCH  18  23
TORSDOF 2
ENDMDL
MODEL 2
REMARK VINA RESULT:     0.000      8.040     10.460
REMARK INTER + INTRA:          -0.085
REMARK INTER:                   0.000
REMARK INTRA:                  -0.085
REMARK UNBOUND:                -0.085
REMARK  Name = 
REMARK  4 active torsions:
REMARK  status: ('A' for Active; 'I' for Inactive)
REMARK    1  A    between atoms: C_1  and  C_2
REMARK    2  A    between atoms: C_2  and  C_3
REMARK    3  A    between atoms: N_5  and  C_6
REMARK    4  A    between atoms: C_20  and  O_21
REMARK                            x       y       z     vdW  Elec       q    Type
REMARK                         _______ _______ _______ _____ _____    ______ ____
ROOT
ATOM      1  C   UNL     1     -44.671-305.631  53.359  0.00  0.00    +0.000 A 
ATOM      2  N   UNL     1     -44.238-305.102  52.189  0.00  0.00    +0.000 NA
ATOM      3  N   UNL     1     -44.183-303.778  52.533  0.00  0.00    +0.000 N 
ATOM      4  C   UNL     1     -43.739-302.816  51.557  0.00  0.00    +0.000 C 
ATOM      5  C   UNL     1     -44.569-303.470  53.823  0.00  0.00    +0.000 A 
ATOM      6  N   UNL     1     -44.704-302.301  54.491  0.00  0.00    +0.000 NA
ATOM      7  C   UNL     1     -45.069-302.578  55.744  0.00  0.00    +0.000 A 
ATOM      8  N   UNL     1     -45.378-301.663  56.716  0.00  0.00    +0.000 N 
ATOM      9  C   UNL     1     -46.200-300.498  56.425  0.00  0.00    +0.000 C 
ATOM     10  C   UNL     1     -47.281-300.439  57.510  0.00  0.00    +0.000 C 
ATOM     11  C   UNL     1     -46.671-300.260  58.925  0.00  0.00    +0.000 C 
ATOM     12  C   UNL     1     -45.679-301.434  59.149  0.00  0.00    +0.000 C 
ATOM     13  C   UNL     1     -44.664-301.570  57.995  0.00  0.00    +0.000 C 
ATOM     14  O   UNL     1     -45.927-299.023  59.021  0.00  0.00    +0.000 OA
ATOM     15  C   UNL     1     -46.710-297.836  58.864  0.00  0.00    +0.000 C 
ATOM     16  C   UNL     1     -47.828-297.750  59.896  0.00  0.00    +0.000 C 
ATOM     17  C   UNL     1     -48.671-299.018  59.900  0.00  0.00    +0.000 C 
ATOM     18  C   UNL     1     -47.771-300.253  60.032  0.00  0.00    +0.000 C 
ATOM     19  S   UNL     1     -45.315-304.324  56.047  0.00  0.00    +0.000 S 
ATOM     20  C   UNL     1     -44.866-304.660  54.413  0.00  0.00    +0.000 A 
ENDROOT
BRANCH   1  22
ATOM     21  C   UNL     1     -46.384-307.423  53.940  0.00  0.00    +0.000 C 
ATOM     22  C   UNL     1     -44.976-307.097  53.442  0.00  0.00    +0.000 C 
ENDBRANCH   1  22
BRANCH  18  23
ATOM     23  O   UNL     1     -48.576-301.429  60.026  0.00  0.00    +0.000 OA
ATOM     24  H   UNL     1     -49.496-301.178  60.217  0.00  0.00    +0.000 HD
ENDBRANCH  18  23
TORSDOF 2
ENDMDL
MODEL 3
REMARK VINA RESULT:     0.000     11.240     12.500
REMARK INTER + INTRA:          -0.085
REMARK INTER:                   0.000
REMARK INTRA:                  -0.085
REMARK UNBOUND:                -0.085
REMARK  Name = 
REMARK  4 active torsions:
REMARK  status: ('A' for Active; 'I' for Inactive)
REMARK    1  A    between atoms: C_1  and  C_2
REMARK    2  A    between atoms: C_2  and  C_3
REMARK    3  A    between atoms: N_5  and  C_6
REMARK    4  A    between atoms: C_20  and  O_21
REMARK                            x       y       z     vdW  Elec       q    Type
REMARK                         _______ _______ _______ _____ _____    ______ ____
ROOT
ATOM      1  C   UNL     1     -40.782-301.571  52.942  0.00  0.00    +0.000 A 
ATOM      2  N   UNL     1     -40.879-302.718  53.656  0.00  0.00    +0.000 NA
ATOM      3  N   UNL     1     -42.124-302.553  54.201  0.00  0.00    +0.000 N 
ATOM      4  C   UNL     1     -42.661-303.583  55.052  0.00  0.00    +0.000 C 
ATOM      5  C   UNL     1     -42.776-301.378  53.879  0.00  0.00    +0.000 A 
ATOM      6  N   UNL     1     -43.960-300.845  54.262  0.00  0.00    +0.000 NA
ATOM      7  C   UNL     1     -44.129-299.696  53.608  0.00  0.00    +0.000 A 
ATOM      8  N   UNL     1     -45.168-298.817  53.773  0.00  0.00    +0.000 N 
ATOM      9  C   UNL     1     -45.666-298.474  55.097  0.00  0.00    +0.000 C 
ATOM     10  C   UNL     1     -45.753-296.945  55.153  0.00  0.00    +0.000 C 
ATOM     11  C   UNL     1     -46.747-296.384  54.102  0.00  0.00    +0.000 C 
ATOM     12  C   UNL     1     -46.281-296.895  52.711  0.00  0.00    +0.000 C 
ATOM     13  C   UNL     1     -46.075-298.424  52.688  0.00  0.00    +0.000 C 
ATOM     14  O   UNL     1     -48.086-296.880  54.332  0.00  0.00    +0.000 OA
ATOM     15  C   UNL     1     -48.674-296.470  55.571  0.00  0.00    +0.000 C 
ATOM     16  C   UNL     1     -48.747-294.953  55.693  0.00  0.00    +0.000 C 
ATOM     17  C   UNL     1     -47.386-294.316  55.446  0.00  0.00    +0.000 C 
ATOM     18  C   UNL     1     -46.794-294.824  54.125  0.00  0.00    +0.000 C 
ATOM     19  S   UNL     1     -42.744-299.257  52.564  0.00  0.00    +0.000 S 
ATOM     20  C   UNL     1     -41.946-300.717  53.028  0.00  0.00    +0.000 A 
ENDROOT
BRANCH   1  22
ATOM     21  C   UNL     1     -38.900-299.895  52.573  0.00  0.00    +0.000 C 
ATOM     22  C   UNL     1     -39.506-301.253  52.220  0.00  0.00    +0.000 C 
ENDBRANCH   1  22
BRANCH  18  23
ATOM     23  O   UNL     1     -45.519-294.224  53.915  0.00  0.00    +0.000 OA
ATOM     24  H   UNL     1     -45.037-294.212  54.759  0.00  0.00    +0.000 HD
ENDBRANCH  18  23
TORSDOF 2
ENDMDL
MODEL 4
REMARK VINA RESULT:     0.000      5.341      6.108
REMARK INTER + INTRA:          -0.085
REMARK INTER:                   0.000
REMARK INTRA:                  -0.085
REMARK UNBOUND:                -0.085
REMARK  Name = 
REMARK  4 active torsions:
REMARK  status: ('A' for Active; 'I' for Inactive)
REMARK    1  A    between atoms: C_1  and  C_2
REMARK    2  A    between atoms: C_2  and  C_3
REMARK    3  A    between atoms: N_5  and  C_6
REMARK    4  A    between atoms: C_20  and  O_21
REMARK                            x       y       z     vdW  Elec       q    Type
REMARK                         _______ _______ _______ _____ _____    ______ ____
ROOT
ATOM      1  C   UNL     1     -42.305-299.674  59.733  0.00  0.00    +0.000 A 
ATOM      2  N   UNL     1     -43.613-299.352  59.588  0.00  0.00    +0.000 NA
ATOM      3  N   UNL     1     -43.588-298.057  60.030  0.00  0.00    +0.000 N 
ATOM      4  C   UNL     1     -44.808-297.291  60.033  0.00  0.00    +0.000 C 
ATOM      5  C   UNL     1     -42.360-297.581  60.448  0.00  0.00    +0.000 A 
ATOM      6  N   UNL     1     -41.961-296.408  60.991  0.00  0.00    +0.000 NA
ATOM      7  C   UNL     1     -40.640-296.459  61.166  0.00  0.00    +0.000 A 
ATOM      8  N   UNL     1     -39.866-295.496  61.760  0.00  0.00    +0.000 N 
ATOM      9  C   UNL     1     -40.295-294.825  62.978  0.00  0.00    +0.000 C 
ATOM     10  C   UNL     1     -39.111-294.877  63.950  0.00  0.00    +0.000 C 
ATOM     11  C   UNL     1     -37.873-294.126  63.394  0.00  0.00    +0.000 C 
ATOM     12  C   UNL     1     -37.531-294.761  62.019  0.00  0.00    +0.000 C 
ATOM     13  C   UNL     1     -38.755-294.820  61.081  0.00  0.00    +0.000 C 
ATOM     14  O   UNL     1     -38.164-292.725  63.177  0.00  0.00    +0.000 OA
ATOM     15  C   UNL     1     -38.474-291.986  64.363  0.00  0.00    +0.000 C 
ATOM     16  C   UNL     1     -37.342-292.040  65.381  0.00  0.00    +0.000 C 
ATOM     17  C   UNL     1     -36.934-293.478  65.672  0.00  0.00    +0.000 C 
ATOM     18  C   UNL     1     -36.653-294.225  64.362  0.00  0.00    +0.000 C 
ATOM     19  S   UNL     1     -39.919-298.031  60.710  0.00  0.00    +0.000 S 
ATOM     20  C   UNL     1     -41.481-298.599  60.239  0.00  0.00    +0.000 A 
ENDROOT
BRANCH   1  22
ATOM     21  C   UNL     1     -41.099-301.743  60.599  0.00  0.00    +0.000 C 
ATOM     22  C   UNL     1     -41.850-301.075  59.448  0.00  0.00    +0.000 C 
ENDBRANCH   1  22
BRANCH  18  23
ATOM     23  O   UNL     1     -36.280-295.569  64.654  0.00  0.00    +0.000 OA
ATOM     24  H   UNL     1     -36.276-296.078  63.826  0.00  0.00    +0.000 HD
ENDBRANCH  18  23
TORSDOF 2
ENDMDL
MODEL 5
REMARK VINA RESULT:     0.000      8.011     12.120
REMARK INTER + INTRA:          -0.085
REMARK INTER:                   0.000
REMARK INTRA:                  -0.085
REMARK UNBOUND:                -0.085
REMARK  Name = 
REMARK  4 active torsions:
REMARK  status: ('A' for Active; 'I' for Inactive)
REMARK    1  A    between atoms: C_1  and  C_2
REMARK    2  A    between atoms: C_2  and  C_3
REMARK    3  A    between atoms: N_5  and  C_6
REMARK    4  A    between atoms: C_20  and  O_21
REMARK                            x       y       z     vdW  Elec       q    Type
REMARK                         _______ _______ _______ _____ _____    ______ ____
ROOT
ATOM      1  C   UNL     1     -47.999-301.974  61.935  0.00  0.00    +0.000 A 
ATOM      2  N   UNL     1     -46.797-301.416  62.215  0.00  0.00    +0.000 NA
ATOM      3  N   UNL     1     -46.289-301.297  60.950  0.00  0.00    +0.000 N 
ATOM      4  C   UNL     1     -44.985-300.713  60.767  0.00  0.00    +0.000 C 
ATOM      5  C   UNL     1     -47.095-301.760  59.927  0.00  0.00    +0.000 A 
ATOM      6  N   UNL     1     -46.918-301.865  58.589  0.00  0.00    +0.000 NA
ATOM      7  C   UNL     1     -48.044-302.345  58.058  0.00  0.00    +0.000 A 
ATOM      8  N   UNL     1     -48.243-302.665  56.741  0.00  0.00    +0.000 N 
ATOM      9  C   UNL     1     -47.232-303.379  55.974  0.00  0.00    +0.000 C 
ATOM     10  C   UNL     1     -47.950-304.535  55.269  0.00  0.00    +0.000 C 
ATOM     11  C   UNL     1     -49.035-304.026  54.283  0.00  0.00    +0.000 C 
ATOM     12  C   UNL     1     -50.014-303.138  55.098  0.00  0.00    +0.000 C 
ATOM     13  C   UNL     1     -49.281-302.048  55.907  0.00  0.00    +0.000 C 
ATOM     14  O   UNL     1     -48.453-303.208  53.242  0.00  0.00    +0.000 OA
ATOM     15  C   UNL     1     -47.541-303.893  52.378  0.00  0.00    +0.000 C 
ATOM     16  C   UNL     1     -48.197-305.079  51.681  0.00  0.00    +0.000 C 
ATOM     17  C   UNL     1     -48.867-306.006  52.688  0.00  0.00    +0.000 C 
ATOM     18  C   UNL     1     -49.800-305.206  53.605  0.00  0.00    +0.000 C 
ATOM     19  S   UNL     1     -49.298-302.733  59.273  0.00  0.00    +0.000 S 
ATOM     20  C   UNL     1     -48.241-302.184  60.524  0.00  0.00    +0.000 A 
ENDROOT
BRANCH   1  22
ATOM     21  C   UNL     1     -49.351-303.847  63.007  0.00  0.00    +0.000 C 
ATOM     22  C   UNL     1     -48.906-302.386  63.056  0.00  0.00    +0.000 C 
ENDBRANCH   1  22
BRANCH  18  23
ATOM     23  O   UNL     1     -50.411-306.087  54.543  0.00  0.00    +0.000 OA
ATOM     24  H   UNL     1     -49.783-306.798  54.759  0.00  0.00    +0.000 HD
ENDBRANCH  18  23
TORSDOF 2
ENDMDL
MODEL 6
REMARK VINA RESULT:     0.000      8.298      9.686
REMARK INTER + INTRA:          -0.085
REMARK INTER:                   0.000
REMARK INTRA:                  -0.085
REMARK UNBOUND:                -0.085
REMARK  Name = 
REMARK  4 active torsions:
REMARK  status: ('A' for Active; 'I' for Inactive)
REMARK    1  A    between atoms: C_1  and  C_2
REMARK    2  A    between atoms: C_2  and  C_3
REMARK    3  A    between atoms: N_5  and  C_6
REMARK    4  A    between atoms: C_20  and  O_21
REMARK                            x       y       z     vdW  Elec       q    Type
REMARK                         _______ _______ _______ _____ _____    ______ ____
ROOT
ATOM      1  C   UNL     1     -47.414-302.372  59.649  0.00  0.00    +0.000 A 
ATOM      2  N   UNL     1     -48.176-303.478  59.467  0.00  0.00    +0.000 NA
ATOM      3  N   UNL     1     -47.236-304.331  58.955  0.00  0.00    +0.000 N 
ATOM      4  C   UNL     1     -47.618-305.679  58.619  0.00  0.00    +0.000 C 
ATOM      5  C   UNL     1     -45.965-303.811  58.800  0.00  0.00    +0.000 A 
ATOM      6  N   UNL     1     -44.819-304.315  58.285  0.00  0.00    +0.000 NA
ATOM      7  C   UNL     1     -43.863-303.396  58.423  0.00  0.00    +0.000 A 
ATOM      8  N   UNL     1     -42.577-303.492  57.959  0.00  0.00    +0.000 N 
ATOM      9  C   UNL     1     -42.288-304.016  56.633  0.00  0.00    +0.000 C 
ATOM     10  C   UNL     1     -41.331-303.021  55.965  0.00  0.00    +0.000 C 
ATOM     11  C   UNL     1     -39.993-302.898  56.739  0.00  0.00    +0.000 C 
ATOM     12  C   UNL     1     -40.341-302.489  58.196  0.00  0.00    +0.000 C 
ATOM     13  C   UNL     1     -41.397-303.419  58.829  0.00  0.00    +0.000 C 
ATOM     14  O   UNL     1     -39.297-304.166  56.787  0.00  0.00    +0.000 OA
ATOM     15  C   UNL     1     -38.879-304.671  55.515  0.00  0.00    +0.000 C 
ATOM     16  C   UNL     1     -37.957-303.698  54.791  0.00  0.00    +0.000 C 
ATOM     17  C   UNL     1     -38.582-302.312  54.700  0.00  0.00    +0.000 C 
ATOM     18  C   UNL     1     -39.042-301.846  56.087  0.00  0.00    +0.000 C 
ATOM     19  S   UNL     1     -44.443-301.862  59.139  0.00  0.00    +0.000 S 
ATOM     20  C   UNL     1     -46.027-302.538  59.274  0.00  0.00    +0.000 A 
ENDROOT
BRANCH   1  22
ATOM     21  C   UNL     1     -47.804-299.891  59.226  0.00  0.00    +0.000 C 
ATOM     22  C   UNL     1     -48.054-301.101  60.125  0.00  0.00    +0.000 C 
ENDBRANCH   1  22
BRANCH  18  23
ATOM     23  O   UNL     1     -39.630-300.553  55.981  0.00  0.00    +0.000 OA
ATOM     24  H   UNL     1     -40.337-300.476  56.643  0.00  0.00    +0.000 HD
ENDBRANCH  18  23
TORSDOF 2
ENDMDL
MODEL 7
REMARK VINA RESULT:     0.000      6.176      8.440
REMARK INTER + INTRA:          -0.085
REMARK INTER:                   0.000
REMARK INTRA:                  -0.085
REMARK UNBOUND:                -0.085
REMARK  Name = 
REMARK  4 active torsions:
REMARK  status: ('A' for Active; 'I' for Inactive)
REMARK    1  A    between atoms: C_1  and  C_2
REMARK    2  A    between atoms: C_2  and  C_3
REMARK    3  A    between atoms: N_5  and  C_6
REMARK    4  A    between atoms: C_20  and  O_21
REMARK                            x       y       z     vdW  Elec       q    Type
REMARK                         _______ _______ _______ _____ _____    ______ ____
ROOT
ATOM      1  C   UNL     1     -41.985-307.311  56.160  0.00  0.00    +0.000 A 
ATOM      2  N   UNL     1     -42.851-308.332  56.371  0.00  0.00    +0.000 NA
ATOM      3  N   UNL     1     -43.685-307.749  57.286  0.00  0.00    +0.000 N 
ATOM      4  C   UNL     1     -44.805-308.500  57.795  0.00  0.00    +0.000 C 
ATOM      5  C   UNL     1     -43.374-306.454  57.654  0.00  0.00    +0.000 A 
ATOM      6  N   UNL     1     -43.912-305.595  58.550  0.00  0.00    +0.000 NA
ATOM      7  C   UNL     1     -43.246-304.442  58.473  0.00  0.00    +0.000 A 
ATOM      8  N   UNL     1     -43.438-303.343  59.269  0.00  0.00    +0.000 N 
ATOM      9  C   UNL     1     -43.627-303.473  60.706  0.00  0.00    +0.000 C 
ATOM     10  C   UNL     1     -42.673-302.473  61.368  0.00  0.00    +0.000 C 
ATOM     11  C   UNL     1     -42.999-301.011  60.967  0.00  0.00    +0.000 C 
ATOM     12  C   UNL     1     -42.942-300.936  59.417  0.00  0.00    +0.000 C 
ATOM     13  C   UNL     1     -43.809-302.022  58.747  0.00  0.00    +0.000 C 
ATOM     14  O   UNL     1     -44.334-300.639  61.382  0.00  0.00    +0.000 OA
ATOM     15  C   UNL     1     -44.543-300.631  62.798  0.00  0.00    +0.000 C 
ATOM     16  C   UNL     1     -43.588-299.681  63.510  0.00  0.00    +0.000 C 
ATOM     17  C   UNL     1     -42.142-299.966  63.128  0.00  0.00    +0.000 C 
ATOM     18  C   UNL     1     -41.993-299.999  61.602  0.00  0.00    +0.000 C 
ATOM     19  S   UNL     1     -41.885-304.480  57.312  0.00  0.00    +0.000 S 
ATOM     20  C   UNL     1     -42.284-306.113  56.915  0.00  0.00    +0.000 A 
ENDROOT
BRANCH   1  22
ATOM     21  C   UNL     1     -39.454-307.186  55.913  0.00  0.00    +0.000 C 
ATOM     22  C   UNL     1     -40.798-307.517  55.267  0.00  0.00    +0.000 C 
ENDBRANCH   1  22
BRANCH  18  23
ATOM     23  O   UNL     1     -40.636-300.275  61.264  0.00  0.00    +0.000 OA
ATOM     24  H   UNL     1     -40.268-300.885  61.925  0.00  0.00    +0.000 HD
ENDBRANCH  18  23
TORSDOF 2
ENDMDL
MODEL 8
REMARK VINA RESULT:     0.000      7.073     10.377
REMARK INTER + INTRA:          -0.085
REMARK INTER:                   0.000
REMARK INTRA:                  -0.085
REMARK UNBOUND:                -0.085
REMARK  Name = 
REMARK  4 active torsions:
REMARK  status: ('A' for Active; 'I' for Inactive)
REMARK    1  A    between atoms: C_1  and  C_2
REMARK    2  A    between atoms: C_2  and  C_3
REMARK    3  A    between atoms: N_5  and  C_6
REMARK    4  A    between atoms: C_20  and  O_21
REMARK                            x       y       z     vdW  Elec       q    Type
REMARK                         _______ _______ _______ _____ _____    ______ ____
ROOT
ATOM      1  C   UNL     1     -39.515-298.534  60.564  0.00  0.00    +0.000 A 
ATOM      2  N   UNL     1     -39.442-297.245  60.153  0.00  0.00    +0.000 NA
ATOM      3  N   UNL     1     -40.578-297.174  59.393  0.00  0.00    +0.000 N 
ATOM      4  C   UNL     1     -40.918-295.930  58.752  0.00  0.00    +0.000 C 
ATOM      5  C   UNL     1     -41.322-298.335  59.303  0.00  0.00    +0.000 A 
ATOM      6  N   UNL     1     -42.440-298.663  58.615  0.00  0.00    +0.000 NA
ATOM      7  C   UNL     1     -42.765-299.919  58.925  0.00  0.00    +0.000 A 
ATOM      8  N   UNL     1     -43.793-300.645  58.382  0.00  0.00    +0.000 N 
ATOM      9  C   UNL     1     -44.065-300.619  56.952  0.00  0.00    +0.000 C 
ATOM     10  C   UNL     1     -44.200-302.078  56.503  0.00  0.00    +0.000 C 
ATOM     11  C   UNL     1     -45.383-302.792  57.208  0.00  0.00    +0.000 C 
ATOM     12  C   UNL     1     -45.148-302.669  58.738  0.00  0.00    +0.000 C 
ATOM     13  C   UNL     1     -44.890-301.212  59.175  0.00  0.00    +0.000 C 
ATOM     14  O   UNL     1     -46.642-302.149  56.898  0.00  0.00    +0.000 OA
ATOM     15  C   UNL     1     -47.020-302.201  55.518  0.00  0.00    +0.000 C 
ATOM     16  C   UNL     1     -47.129-303.634  55.011  0.00  0.00    +0.000 C 
ATOM     17  C   UNL     1     -45.858-304.420  55.305  0.00  0.00    +0.000 C 
ATOM     18  C   UNL     1     -45.487-304.292  56.788  0.00  0.00    +0.000 C 
ATOM     19  S   UNL     1     -41.602-300.705  60.033  0.00  0.00    +0.000 S 
ATOM     20  C   UNL     1     -40.679-299.246  60.083  0.00  0.00    +0.000 A 
ENDROOT
BRANCH   1  22
ATOM     21  C   UNL     1     -37.793-300.396  60.798  0.00  0.00    +0.000 C 
ATOM     22  C   UNL     1     -38.399-299.118  61.377  0.00  0.00    +0.000 C 
ENDBRANCH   1  22
BRANCH  18  23
ATOM     23  O   UNL     1     -44.292-305.026  57.042  0.00  0.00    +0.000 OA
ATOM     24  H   UNL     1     -44.030-304.885  57.967  0.00  0.00    +0.000 HD
ENDBRANCH  18  23
TORSDOF 2
ENDMDL
MODEL 9
REMARK VINA RESULT:     0.000      8.006     11.468
REMARK INTER + INTRA:          -0.085
REMARK INTER:                   0.000
REMARK INTRA:                  -0.085
REMARK UNBOUND:                -0.085
REMARK  Name = 
REMARK  4 active torsions:
REMARK  status: ('A' for Active; 'I' for Inactive)
REMARK    1  A    between atoms: C_1  and  C_2
REMARK    2  A    between atoms: C_2  and  C_3
REMARK    3  A    between atoms: N_5  and  C_6
REMARK    4  A    between atoms: C_20  and  O_21
REMARK                            x       y       z     vdW  Elec       q    Type
REMARK                         _______ _______ _______ _____ _____    ______ ____
ROOT
ATOM      1  C   UNL     1     -39.956-299.401  59.994  0.00  0.00    +0.000 A 
ATOM      2  N   UNL     1     -40.015-298.106  59.603  0.00  0.00    +0.000 NA
ATOM      3  N   UNL     1     -40.991-298.191  58.647  0.00  0.00    +0.000 N 
ATOM      4  C   UNL     1     -41.403-296.998  57.954  0.00  0.00    +0.000 C 
ATOM      5  C   UNL     1     -41.511-299.452  58.422  0.00  0.00    +0.000 A 
ATOM      6  N   UNL     1     -42.420-299.930  57.541  0.00  0.00    +0.000 NA
ATOM      7  C   UNL     1     -42.592-301.230  57.787  0.00  0.00    +0.000 A 
ATOM      8  N   UNL     1     -43.375-302.092  57.064  0.00  0.00    +0.000 N 
ATOM      9  C   UNL     1     -43.383-302.068  55.609  0.00  0.00    +0.000 C 
ATOM     10  C   UNL     1     -43.201-303.517  55.143  0.00  0.00    +0.000 C 
ATOM     11  C   UNL     1     -44.363-304.427  55.619  0.00  0.00    +0.000 C 
ATOM     12  C   UNL     1     -44.432-304.313  57.166  0.00  0.00    +0.000 C 
ATOM     13  C   UNL     1     -44.493-302.846  57.642  0.00  0.00    +0.000 C 
ATOM     14  O   UNL     1     -45.631-303.980  55.083  0.00  0.00    +0.000 OA
ATOM     15  C   UNL     1     -45.739-304.051  53.657  0.00  0.00    +0.000 C 
ATOM     16  C   UNL     1     -45.524-305.468  53.139  0.00  0.00    +0.000 C 
ATOM     17  C   UNL     1     -44.219-306.053  53.662  0.00  0.00    +0.000 C 
ATOM     18  C   UNL     1     -44.149-305.912  55.188  0.00  0.00    +0.000 C 
ATOM     19  S   UNL     1     -41.539-301.856  59.090  0.00  0.00    +0.000 S 
ATOM     20  C   UNL     1     -40.885-300.272  59.308  0.00  0.00    +0.000 A 
ENDROOT
BRANCH   1  22
ATOM     21  C   UNL     1     -38.031-300.977  60.542  0.00  0.00    +0.000 C 
ATOM     22  C   UNL     1     -38.927-299.826  61.000  0.00  0.00    +0.000 C 
ENDBRANCH   1  22
BRANCH  18  23
ATOM     23  O   UNL     1     -42.919-306.457  55.658  0.00  0.00    +0.000 OA
ATOM     24  H   UNL     1     -43.114-307.145  56.315  0.00  0.00    +0.000 HD
ENDBRANCH  18  23
TORSDOF 2
ENDMDL
MODEL 10
REMARK VINA RESULT:     0.000      5.989      6.717
REMARK INTER + INTRA:          -0.085
REMARK INTER:                   0.000
REMARK INTRA:                  -0.085
REMARK UNBOUND:                -0.085
REMARK  Name = 
REMARK  4 active torsions:
REMARK  status: ('A' for Active; 'I' for Inactive)
REMARK    1  A    between atoms: C_1  and  C_2
REMARK    2  A    between atoms: C_2  and  C_3
REMARK    3  A    between atoms: N_5  and  C_6
REMARK    4  A    between atoms: C_20  and  O_21
REMARK                            x       y       z     vdW  Elec       q    Type
REMARK                         _______ _______ _______ _____ _____    ______ ____
ROOT
ATOM      1  C   UNL     1     -45.278-302.660  58.488  0.00  0.00    +0.000 A 
ATOM      2  N   UNL     1     -44.660-303.034  57.342  0.00  0.00    +0.000 NA
ATOM      3  N   UNL     1     -44.015-301.867  57.029  0.00  0.00    +0.000 N 
ATOM      4  C   UNL     1     -43.192-301.814  55.848  0.00  0.00    +0.000 C 
ATOM      5  C   UNL     1     -44.216-300.811  57.898  0.00  0.00    +0.000 A 
ATOM      6  N   UNL     1     -43.808-299.521  57.890  0.00  0.00    +0.000 NA
ATOM      7  C   UNL     1     -44.253-298.939  59.005  0.00  0.00    +0.000 A 
ATOM      8  N   UNL     1     -44.114-297.616  59.336  0.00  0.00    +0.000 N 
ATOM      9  C   UNL     1     -44.327-296.564  58.354  0.00  0.00    +0.000 C 
ATOM     10  C   UNL     1     -45.262-295.537  59.004  0.00  0.00    +0.000 C 
ATOM     11  C   UNL     1     -44.629-294.898  60.268  0.00  0.00    +0.000 C 
ATOM     12  C   UNL     1     -44.268-296.058  61.236  0.00  0.00    +0.000 C 
ATOM     13  C   UNL     1     -43.427-297.154  60.548  0.00  0.00    +0.000 C 
ATOM     14  O   UNL     1     -43.409-294.193  59.943  0.00  0.00    +0.000 OA
ATOM     15  C   UNL     1     -43.577-293.069  59.073  0.00  0.00    +0.000 C 
ATOM     16  C   UNL     1     -44.532-292.035  59.657  0.00  0.00    +0.000 C 
ATOM     17  C   UNL     1     -45.855-292.674  60.060  0.00  0.00    +0.000 C 
ATOM     18  C   UNL     1     -45.604-293.892  60.957  0.00  0.00    +0.000 C 
ATOM     19  S   UNL     1     -45.254-300.016  60.023  0.00  0.00    +0.000 S 
ATOM     20  C   UNL     1     -45.012-301.296  58.889  0.00  0.00    +0.000 A 
ENDROOT
BRANCH   1  22
ATOM     21  C   UNL     1     -47.610-303.062  59.429  0.00  0.00    +0.000 C 
ATOM     22  C   UNL     1     -46.208-303.615  59.174  0.00  0.00    +0.000 C 
ENDBRANCH   1  22
BRANCH  18  23
ATOM     23  O   UNL     1     -46.851-294.481  61.316  0.00  0.00    +0.000 OA
ATOM     24  H   UNL     1     -46.897-294.545  62.285  0.00  0.00    +0.000 HD
ENDBRANCH  18  23
TORSDOF 2
ENDMDL
