MODEL 1
REMARK VINA RESULT:    -8.712      0.000      0.000
REMARK INTER + INTRA:         -13.167
REMARK INTER:                 -12.278
REMARK INTRA:                  -0.889
REMARK UNBOUND:                -0.889
REMARK  Name = 
REMARK  11 active torsions:
REMARK  status: ('A' for Active; 'I' for Inactive)
REMARK    1  A    between atoms: C_1  and  C_2
REMARK    2  A    between atoms: C_2  and  O_3
REMARK    3  A    between atoms: O_3  and  C_4
REMARK    4  A    between atoms: C_4  and  C_6
REMARK    5  A    between atoms: C_6  and  N_7
REMARK    6  A    between atoms: C_6  and  C_21
REMARK    7  A    between atoms: N_11  and  C_12
REMARK    8  A    between atoms: C_12  and  C_13
REMARK    9  A    between atoms: C_21  and  C_22
REMARK   10  A    between atoms: C_21  and  C_23
REMARK   11  A    between atoms: C_21  and  C_24
REMARK                            x       y       z     vdW  Elec       q    Type
REMARK                         _______ _______ _______ _____ _____    ______ ____
ROOT
ATOM      1  N   UNL     1     100.473 109.593 126.281  0.00  0.00    +0.000 N 
ATOM      2  C   UNL     1      99.708 109.395 125.162  0.00  0.00    +0.000 A 
ATOM      3  C   UNL     1      99.156 108.164 124.740  0.00  0.00    +0.000 A 
ATOM      4  C   UNL     1      98.698 108.342 123.482  0.00  0.00    +0.000 A 
ATOM      5  N   UNL     1      98.757 109.668 123.264  0.00  0.00    +0.000 N 
ATOM      6  N   UNL     1      99.311 110.357 124.308  0.00  0.00    +0.000 NA
ATOM      7  H   UNL     1     100.362 110.499 126.728  0.00  0.00    +0.000 HD
ENDROOT
BRANCH   1   8
ATOM      8  C   UNL     1     101.836 108.979 126.572  0.00  0.00    +0.000 C 
BRANCH   8   9
ATOM      9  C   UNL     1     103.058 109.582 125.809  0.00  0.00    +0.000 C 
ATOM     10  C   UNL     1     104.433 109.267 126.421  0.00  0.00    +0.000 C 
ATOM     11  C   UNL     1     103.156 108.842 124.473  0.00  0.00    +0.000 C 
ATOM     12  C   UNL     1     102.927 111.127 125.731  0.00  0.00    +0.000 C 
ENDBRANCH   8   9
BRANCH   8  13
ATOM     13  C   UNL     1     102.180 108.848 128.064  0.00  0.00    +0.000 C 
ATOM     14  O   UNL     1     102.144 109.819 128.844  0.00  0.00    +0.000 OA
BRANCH  13  15
ATOM     15  O   UNL     1     102.401 107.570 128.458  0.00  0.00    +0.000 OA
BRANCH  15  17
ATOM     16  C   UNL     1     100.576 106.007 128.222  0.00  0.00    +0.000 C 
ATOM     17  C   UNL     1     101.342 106.903 129.172  0.00  0.00    +0.000 C 
ENDBRANCH  15  17
ENDBRANCH  13  15
ENDBRANCH   8  13
ENDBRANCH   1   8
BRANCH   5  18
ATOM     18  C   UNL     1      98.136 110.305 122.110  0.00  0.00    +0.000 C 
BRANCH  18  19
ATOM     19  C   UNL     1      96.740 110.804 122.416  0.00  0.00    +0.000 A 
ATOM     20  C   UNL     1      96.564 112.108 122.885  0.00  0.00    +0.000 A 
ATOM     21  C   UNL     1      95.280 112.602 123.135  0.00  0.00    +0.000 A 
ATOM     22  C   UNL     1      94.152 111.821 122.876  0.00  0.00    +0.000 A 
ATOM     23  C   UNL     1      94.307 110.523 122.422  0.00  0.00    +0.000 A 
ATOM     24  C   UNL     1      95.587 110.014 122.263  0.00  0.00    +0.000 A 
ATOM     25  F   UNL     1      95.662 108.701 122.021  0.00  0.00    +0.000 F 
ENDBRANCH  18  19
ENDBRANCH   5  18
TORSDOF 7
ENDMDL
MODEL 2
REMARK VINA RESULT:    -8.483      2.499      4.057
REMARK INTER + INTRA:         -12.843
REMARK INTER:                 -12.072
REMARK INTRA:                  -0.772
REMARK UNBOUND:                -0.889
REMARK  Name = 
REMARK  11 active torsions:
REMARK  status: ('A' for Active; 'I' for Inactive)
REMARK    1  A    between atoms: C_1  and  C_2
REMARK    2  A    between atoms: C_2  and  O_3
REMARK    3  A    between atoms: O_3  and  C_4
REMARK    4  A    between atoms: C_4  and  C_6
REMARK    5  A    between atoms: C_6  and  N_7
REMARK    6  A    between atoms: C_6  and  C_21
REMARK    7  A    between atoms: N_11  and  C_12
REMARK    8  A    between atoms: C_12  and  C_13
REMARK    9  A    between atoms: C_21  and  C_22
REMARK   10  A    between atoms: C_21  and  C_23
REMARK   11  A    between atoms: C_21  and  C_24
REMARK                            x       y       z     vdW  Elec       q    Type
REMARK                         _______ _______ _______ _____ _____    ______ ____
ROOT
ATOM      1  N   UNL     1     100.671 108.702 123.838  0.00  0.00    +0.000 N 
ATOM      2  C   UNL     1      99.569 109.282 123.267  0.00  0.00    +0.000 A 
ATOM      3  C   UNL     1      99.510 110.576 122.701  0.00  0.00    +0.000 A 
ATOM      4  C   UNL     1      98.207 110.858 122.484  0.00  0.00    +0.000 A 
ATOM      5  N   UNL     1      97.552 109.700 122.684  0.00  0.00    +0.000 N 
ATOM      6  N   UNL     1      98.372 108.688 123.100  0.00  0.00    +0.000 NA
ATOM      7  H   UNL     1     100.740 107.695 123.723  0.00  0.00    +0.000 HD
ENDROOT
BRANCH   1   8
ATOM      8  C   UNL     1     101.413 109.185 125.077  0.00  0.00    +0.000 C 
BRANCH   8   9
ATOM      9  C   UNL     1     101.199 108.366 126.390  0.00  0.00    +0.000 C 
ATOM     10  C   UNL     1     102.273 108.571 127.472  0.00  0.00    +0.000 C 
ATOM     11  C   UNL     1      99.968 108.953 127.084  0.00  0.00    +0.000 C 
ATOM     12  C   UNL     1     101.148 106.848 126.069  0.00  0.00    +0.000 C 
ENDBRANCH   8   9
BRANCH   8  13
ATOM     13  C   UNL     1     102.915 109.439 124.872  0.00  0.00    +0.000 C 
ATOM     14  O   UNL     1     103.721 108.518 124.646  0.00  0.00    +0.000 OA
BRANCH  13  15
ATOM     15  O   UNL     1     103.242 110.754 124.843  0.00  0.00    +0.000 OA
BRANCH  15  17
ATOM     16  C   UNL     1     102.991 112.149 126.797  0.00  0.00    +0.000 C 
ATOM     17  C   UNL     1     103.937 111.290 125.985  0.00  0.00    +0.000 C 
ENDBRANCH  15  17
ENDBRANCH  13  15
ENDBRANCH   8  13
ENDBRANCH   1   8
BRANCH   5  18
ATOM     18  C   UNL     1      96.152 109.515 122.325  0.00  0.00    +0.000 C 
BRANCH  18  19
ATOM     19  C   UNL     1      95.847 108.084 121.940  0.00  0.00    +0.000 A 
ATOM     20  C   UNL     1      95.071 107.293 122.792  0.00  0.00    +0.000 A 
ATOM     21  C   UNL     1      94.744 105.981 122.434  0.00  0.00    +0.000 A 
ATOM     22  C   UNL     1      95.143 105.455 121.204  0.00  0.00    +0.000 A 
ATOM     23  C   UNL     1      95.921 106.220 120.353  0.00  0.00    +0.000 A 
ATOM     24  C   UNL     1      96.315 107.487 120.756  0.00  0.00    +0.000 A 
ATOM     25  F   UNL     1      97.226 108.083 119.980  0.00  0.00    +0.000 F 
ENDBRANCH  18  19
ENDBRANCH   5  18
TORSDOF 7
ENDMDL
MODEL 3
REMARK VINA RESULT:    -8.397      3.940      7.642
REMARK INTER + INTRA:         -12.723
REMARK INTER:                 -12.113
REMARK INTRA:                  -0.609
REMARK UNBOUND:                -0.889
REMARK  Name = 
REMARK  11 active torsions:
REMARK  status: ('A' for Active; 'I' for Inactive)
REMARK    1  A    between atoms: C_1  and  C_2
REMARK    2  A    between atoms: C_2  and  O_3
REMARK    3  A    between atoms: O_3  and  C_4
REMARK    4  A    between atoms: C_4  and  C_6
REMARK    5  A    between atoms: C_6  and  N_7
REMARK    6  A    between atoms: C_6  and  C_21
REMARK    7  A    between atoms: N_11  and  C_12
REMARK    8  A    between atoms: C_12  and  C_13
REMARK    9  A    between atoms: C_21  and  C_22
REMARK   10  A    between atoms: C_21  and  C_23
REMARK   11  A    between atoms: C_21  and  C_24
REMARK                            x       y       z     vdW  Elec       q    Type
REMARK                         _______ _______ _______ _____ _____    ______ ____
ROOT
ATOM      1  N   UNL     1      97.814 107.696 123.193  0.00  0.00    +0.000 N 
ATOM      2  C   UNL     1      98.947 108.404 123.497  0.00  0.00    +0.000 A 
ATOM      3  C   UNL     1      99.243 109.719 123.074  0.00  0.00    +0.000 A 
ATOM      4  C   UNL     1     100.541 109.950 123.367  0.00  0.00    +0.000 A 
ATOM      5  N   UNL     1     100.923 108.917 124.139  0.00  0.00    +0.000 N 
ATOM      6  N   UNL     1      99.942 107.978 124.298  0.00  0.00    +0.000 NA
ATOM      7  H   UNL     1      97.496 107.055 123.914  0.00  0.00    +0.000 HD
ENDROOT
BRANCH   1   8
ATOM      8  C   UNL     1      97.357 107.262 121.807  0.00  0.00    +0.000 C 
BRANCH   8   9
ATOM      9  C   UNL     1      96.450 105.993 121.729  0.00  0.00    +0.000 C 
ATOM     10  C   UNL     1      95.738 105.777 120.383  0.00  0.00    +0.000 C 
ATOM     11  C   UNL     1      97.381 104.779 121.765  0.00  0.00    +0.000 C 
ATOM     12  C   UNL     1      95.355 106.052 122.828  0.00  0.00    +0.000 C 
ENDBRANCH   8   9
BRANCH   8  13
ATOM     13  C   UNL     1      96.746 108.380 120.948  0.00  0.00    +0.000 C 
ATOM     14  O   UNL     1      97.231 108.719 119.852  0.00  0.00    +0.000 OA
BRANCH  13  15
ATOM     15  O   UNL     1      95.580 108.864 121.440  0.00  0.00    +0.000 OA
BRANCH  15  17
ATOM     16  C   UNL     1      94.225 110.581 122.462  0.00  0.00    +0.000 C 
ATOM     17  C   UNL     1      95.524 110.270 121.750  0.00  0.00    +0.000 C 
ENDBRANCH  15  17
ENDBRANCH  13  15
ENDBRANCH   8  13
ENDBRANCH   1   8
BRANCH   5  18
ATOM     18  C   UNL     1     102.188 108.900 124.862  0.00  0.00    +0.000 C 
BRANCH  18  19
ATOM     19  C   UNL     1     102.292 110.037 125.855  0.00  0.00    +0.000 A 
ATOM     20  C   UNL     1     103.239 111.044 125.651  0.00  0.00    +0.000 A 
ATOM     21  C   UNL     1     103.323 112.125 126.534  0.00  0.00    +0.000 A 
ATOM     22  C   UNL     1     102.435 112.243 127.605  0.00  0.00    +0.000 A 
ATOM     23  C   UNL     1     101.497 111.250 127.829  0.00  0.00    +0.000 A 
ATOM     24  C   UNL     1     101.482 110.139 127.000  0.00  0.00    +0.000 A 
ATOM     25  F   UNL     1     100.694 109.133 127.396  0.00  0.00    +0.000 F 
ENDBRANCH  18  19
ENDBRANCH   5  18
TORSDOF 7
ENDMDL
MODEL 4
REMARK VINA RESULT:    -8.327      3.622      7.226
REMARK INTER + INTRA:         -12.624
REMARK INTER:                 -11.881
REMARK INTRA:                  -0.743
REMARK UNBOUND:                -0.889
REMARK  Name = 
REMARK  11 active torsions:
REMARK  status: ('A' for Active; 'I' for Inactive)
REMARK    1  A    between atoms: C_1  and  C_2
REMARK    2  A    between atoms: C_2  and  O_3
REMARK    3  A    between atoms: O_3  and  C_4
REMARK    4  A    between atoms: C_4  and  C_6
REMARK    5  A    between atoms: C_6  and  N_7
REMARK    6  A    between atoms: C_6  and  C_21
REMARK    7  A    between atoms: N_11  and  C_12
REMARK    8  A    between atoms: C_12  and  C_13
REMARK    9  A    between atoms: C_21  and  C_22
REMARK   10  A    between atoms: C_21  and  C_23
REMARK   11  A    between atoms: C_21  and  C_24
REMARK                            x       y       z     vdW  Elec       q    Type
REMARK                         _______ _______ _______ _____ _____    ______ ____
ROOT
ATOM      1  N   UNL     1      99.270 107.919 123.071  0.00  0.00    +0.000 N 
ATOM      2  C   UNL     1     100.047 107.704 124.179  0.00  0.00    +0.000 A 
ATOM      3  C   UNL     1      99.778 106.782 125.216  0.00  0.00    +0.000 A 
ATOM      4  C   UNL     1     100.633 107.055 126.225  0.00  0.00    +0.000 A 
ATOM      5  N   UNL     1     101.518 107.932 125.716  0.00  0.00    +0.000 N 
ATOM      6  N   UNL     1     101.227 108.300 124.432  0.00  0.00    +0.000 NA
ATOM      7  H   UNL     1      99.777 108.169 122.227  0.00  0.00    +0.000 HD
ENDROOT
BRANCH   1   8
ATOM      8  C   UNL     1      97.840 108.443 123.051  0.00  0.00    +0.000 C 
BRANCH   8   9
ATOM      9  C   UNL     1      97.547 109.653 122.108  0.00  0.00    +0.000 C 
ATOM     10  C   UNL     1      96.464 110.626 122.608  0.00  0.00    +0.000 C 
ATOM     11  C   UNL     1      98.785 110.552 122.141  0.00  0.00    +0.000 C 
ATOM     12  C   UNL     1      97.104 109.145 120.710  0.00  0.00    +0.000 C 
ENDBRANCH   8   9
BRANCH   8  13
ATOM     13  C   UNL     1      96.761 107.366 122.851  0.00  0.00    +0.000 C 
ATOM     14  O   UNL     1      95.585 107.525 123.229  0.00  0.00    +0.000 OA
BRANCH  13  15
ATOM     15  O   UNL     1      97.185 106.301 122.129  0.00  0.00    +0.000 OA
BRANCH  15  17
ATOM     16  C   UNL     1      95.668 105.387 120.488  0.00  0.00    +0.000 C 
ATOM     17  C   UNL     1      96.236 105.246 121.884  0.00  0.00    +0.000 C 
ENDBRANCH  15  17
ENDBRANCH  13  15
ENDBRANCH   8  13
ENDBRANCH   1   8
BRANCH   5  18
ATOM     18  C   UNL     1     102.745 108.304 126.409  0.00  0.00    +0.000 C 
BRANCH  18  19
ATOM     19  C   UNL     1     102.807 109.788 126.700  0.00  0.00    +0.000 A 
ATOM     20  C   UNL     1     103.622 110.608 125.916  0.00  0.00    +0.000 A 
ATOM     21  C   UNL     1     103.662 111.988 126.142  0.00  0.00    +0.000 A 
ATOM     22  C   UNL     1     102.855 112.575 127.118  0.00  0.00    +0.000 A 
ATOM     23  C   UNL     1     102.050 111.777 127.911  0.00  0.00    +0.000 A 
ATOM     24  C   UNL     1     102.085 110.402 127.739  0.00  0.00    +0.000 A 
ATOM     25  F   UNL     1     101.443 109.686 128.668  0.00  0.00    +0.000 F 
ENDBRANCH  18  19
ENDBRANCH   5  18
TORSDOF 7
ENDMDL
MODEL 5
REMARK VINA RESULT:    -8.268      1.427      2.738
REMARK INTER + INTRA:         -12.540
REMARK INTER:                 -12.055
REMARK INTRA:                  -0.485
REMARK UNBOUND:                -0.889
REMARK  Name = 
REMARK  11 active torsions:
REMARK  status: ('A' for Active; 'I' for Inactive)
REMARK    1  A    between atoms: C_1  and  C_2
REMARK    2  A    between atoms: C_2  and  O_3
REMARK    3  A    between atoms: O_3  and  C_4
REMARK    4  A    between atoms: C_4  and  C_6
REMARK    5  A    between atoms: C_6  and  N_7
REMARK    6  A    between atoms: C_6  and  C_21
REMARK    7  A    between atoms: N_11  and  C_12
REMARK    8  A    between atoms: C_12  and  C_13
REMARK    9  A    between atoms: C_21  and  C_22
REMARK   10  A    between atoms: C_21  and  C_23
REMARK   11  A    between atoms: C_21  and  C_24
REMARK                            x       y       z     vdW  Elec       q    Type
REMARK                         _______ _______ _______ _____ _____    ______ ____
ROOT
ATOM      1  N   UNL     1     100.486 108.884 125.714  0.00  0.00    +0.000 N 
ATOM      2  C   UNL     1     100.013 109.276 124.489  0.00  0.00    +0.000 A 
ATOM      3  C   UNL     1     100.712 110.055 123.539  0.00  0.00    +0.000 A 
ATOM      4  C   UNL     1      99.821 110.430 122.597  0.00  0.00    +0.000 A 
ATOM      5  N   UNL     1      98.711 109.711 122.847  0.00  0.00    +0.000 N 
ATOM      6  N   UNL     1      98.820 108.935 123.968  0.00  0.00    +0.000 NA
ATOM      7  H   UNL     1     100.157 107.978 126.037  0.00  0.00    +0.000 HD
ENDROOT
BRANCH   1   8
ATOM      8  C   UNL     1     100.877 109.792 126.872  0.00  0.00    +0.000 C 
BRANCH   8   9
ATOM      9  C   UNL     1     100.615 109.249 128.312  0.00  0.00    +0.000 C 
ATOM     10  C   UNL     1      99.137 109.010 128.665  0.00  0.00    +0.000 C 
ATOM     11  C   UNL     1     101.160 107.819 128.354  0.00  0.00    +0.000 C 
ATOM     12  C   UNL     1     101.190 110.234 129.366  0.00  0.00    +0.000 C 
ENDBRANCH   8   9
BRANCH   8  13
ATOM     13  C   UNL     1     102.302 110.364 126.792  0.00  0.00    +0.000 C 
ATOM     14  O   UNL     1     102.531 111.587 126.835  0.00  0.00    +0.000 OA
BRANCH  13  15
ATOM     15  O   UNL     1     103.268 109.413 126.794  0.00  0.00    +0.000 OA
BRANCH  15  17
ATOM     16  C   UNL     1     103.890 108.507 124.644  0.00  0.00    +0.000 C 
ATOM     17  C   UNL     1     104.258 109.474 125.750  0.00  0.00    +0.000 C 
ENDBRANCH  15  17
ENDBRANCH  13  15
ENDBRANCH   8  13
ENDBRANCH   1   8
BRANCH   5  18
ATOM     18  C   UNL     1      97.590 109.644 121.919  0.00  0.00    +0.000 C 
BRANCH  18  19
ATOM     19  C   UNL     1      96.437 110.522 122.356  0.00  0.00    +0.000 A 
ATOM     20  C   UNL     1      96.691 111.824 122.793  0.00  0.00    +0.000 A 
ATOM     21  C   UNL     1      95.636 112.665 123.162  0.00  0.00    +0.000 A 
ATOM     22  C   UNL     1      94.311 112.237 123.055  0.00  0.00    +0.000 A 
ATOM     23  C   UNL     1      94.041 110.947 122.634  0.00  0.00    +0.000 A 
ATOM     24  C   UNL     1      95.097 110.093 122.357  0.00  0.00    +0.000 A 
ATOM     25  F   UNL     1      94.769 108.813 122.156  0.00  0.00    +0.000 F 
ENDBRANCH  18  19
ENDBRANCH   5  18
TORSDOF 7
ENDMDL
MODEL 6
REMARK VINA RESULT:    -8.262      3.657      7.236
REMARK INTER + INTRA:         -12.532
REMARK INTER:                 -11.875
REMARK INTRA:                  -0.657
REMARK UNBOUND:                -0.889
REMARK  Name = 
REMARK  11 active torsions:
REMARK  status: ('A' for Active; 'I' for Inactive)
REMARK    1  A    between atoms: C_1  and  C_2
REMARK    2  A    between atoms: C_2  and  O_3
REMARK    3  A    between atoms: O_3  and  C_4
REMARK    4  A    between atoms: C_4  and  C_6
REMARK    5  A    between atoms: C_6  and  N_7
REMARK    6  A    between atoms: C_6  and  C_21
REMARK    7  A    between atoms: N_11  and  C_12
REMARK    8  A    between atoms: C_12  and  C_13
REMARK    9  A    between atoms: C_21  and  C_22
REMARK   10  A    between atoms: C_21  and  C_23
REMARK   11  A    between atoms: C_21  and  C_24
REMARK                            x       y       z     vdW  Elec       q    Type
REMARK                         _______ _______ _______ _____ _____    ______ ____
ROOT
ATOM      1  N   UNL     1      99.161 107.965 123.228  0.00  0.00    +0.000 N 
ATOM      2  C   UNL     1      99.807 107.743 124.415  0.00  0.00    +0.000 A 
ATOM      3  C   UNL     1      99.424 106.813 125.408  0.00  0.00    +0.000 A 
ATOM      4  C   UNL     1     100.158 107.081 126.510  0.00  0.00    +0.000 A 
ATOM      5  N   UNL     1     101.094 107.961 126.111  0.00  0.00    +0.000 N 
ATOM      6  N   UNL     1     100.951 108.338 124.805  0.00  0.00    +0.000 NA
ATOM      7  H   UNL     1      99.760 108.221 122.448  0.00  0.00    +0.000 HD
ENDROOT
BRANCH   1   8
ATOM      8  C   UNL     1      97.742 108.488 123.048  0.00  0.00    +0.000 C 
BRANCH   8   9
ATOM      9  C   UNL     1      97.551 109.683 122.062  0.00  0.00    +0.000 C 
ATOM     10  C   UNL     1      96.423 110.663 122.429  0.00  0.00    +0.000 C 
ATOM     11  C   UNL     1      98.780 110.583 122.211  0.00  0.00    +0.000 C 
ATOM     12  C   UNL     1      97.258 109.153 120.632  0.00  0.00    +0.000 C 
ENDBRANCH   8   9
BRANCH   8  13
ATOM     13  C   UNL     1      96.688 107.408 122.753  0.00  0.00    +0.000 C 
ATOM     14  O   UNL     1      95.469 107.608 122.908  0.00  0.00    +0.000 OA
BRANCH  13  15
ATOM     15  O   UNL     1      97.205 106.283 122.203  0.00  0.00    +0.000 OA
BRANCH  15  17
ATOM     16  C   UNL     1      96.092 104.249 121.531  0.00  0.00    +0.000 C 
ATOM     17  C   UNL     1      96.460 105.663 121.137  0.00  0.00    +0.000 C 
ENDBRANCH  15  17
ENDBRANCH  13  15
ENDBRANCH   8  13
ENDBRANCH   1   8
BRANCH   5  18
ATOM     18  C   UNL     1     102.234 108.329 126.942  0.00  0.00    +0.000 C 
BRANCH  18  19
ATOM     19  C   UNL     1     102.579 109.797 126.816  0.00  0.00    +0.000 A 
ATOM     20  C   UNL     1     101.840 110.742 127.532  0.00  0.00    +0.000 A 
ATOM     21  C   UNL     1     102.170 112.099 127.462  0.00  0.00    +0.000 A 
ATOM     22  C   UNL     1     103.269 112.529 126.715  0.00  0.00    +0.000 A 
ATOM     23  C   UNL     1     104.006 111.609 125.990  0.00  0.00    +0.000 A 
ATOM     24  C   UNL     1     103.616 110.278 125.996  0.00  0.00    +0.000 A 
ATOM     25  F   UNL     1     104.244 109.488 125.119  0.00  0.00    +0.000 F 
ENDBRANCH  18  19
ENDBRANCH   5  18
TORSDOF 7
ENDMDL
MODEL 7
REMARK VINA RESULT:    -8.106      2.805      4.313
REMARK INTER + INTRA:         -12.313
REMARK INTER:                 -11.511
REMARK INTRA:                  -0.802
REMARK UNBOUND:                -0.889
REMARK  Name = 
REMARK  11 active torsions:
REMARK  status: ('A' for Active; 'I' for Inactive)
REMARK    1  A    between atoms: C_1  and  C_2
REMARK    2  A    between atoms: C_2  and  O_3
REMARK    3  A    between atoms: O_3  and  C_4
REMARK    4  A    between atoms: C_4  and  C_6
REMARK    5  A    between atoms: C_6  and  N_7
REMARK    6  A    between atoms: C_6  and  C_21
REMARK    7  A    between atoms: N_11  and  C_12
REMARK    8  A    between atoms: C_12  and  C_13
REMARK    9  A    between atoms: C_21  and  C_22
REMARK   10  A    between atoms: C_21  and  C_23
REMARK   11  A    between atoms: C_21  and  C_24
REMARK                            x       y       z     vdW  Elec       q    Type
REMARK                         _______ _______ _______ _____ _____    ______ ____
ROOT
ATOM      1  N   UNL     1     102.042 108.284 128.395  0.00  0.00    +0.000 N 
ATOM      2  C   UNL     1     102.502 108.474 127.119  0.00  0.00    +0.000 A 
ATOM      3  C   UNL     1     103.787 108.940 126.760  0.00  0.00    +0.000 A 
ATOM      4  C   UNL     1     103.754 109.226 125.440  0.00  0.00    +0.000 A 
ATOM      5  N   UNL     1     102.586 108.728 124.995  0.00  0.00    +0.000 N 
ATOM      6  N   UNL     1     101.819 108.193 125.992  0.00  0.00    +0.000 NA
ATOM      7  H   UNL     1     101.385 107.516 128.510  0.00  0.00    +0.000 HD
ENDROOT
BRANCH   1   8
ATOM      8  C   UNL     1     101.860 109.351 129.465  0.00  0.00    +0.000 C 
BRANCH   8   9
ATOM      9  C   UNL     1     100.934 110.557 129.107  0.00  0.00    +0.000 C 
ATOM     10  C   UNL     1     100.435 111.380 130.308  0.00  0.00    +0.000 C 
ATOM     11  C   UNL     1     101.806 111.589 128.388  0.00  0.00    +0.000 C 
ATOM     12  C   UNL     1      99.683 110.057 128.336  0.00  0.00    +0.000 C 
ENDBRANCH   8   9
BRANCH   8  13
ATOM     13  C   UNL     1     101.486 108.815 130.856  0.00  0.00    +0.000 C 
ATOM     14  O   UNL     1     101.973 109.283 131.903  0.00  0.00    +0.000 OA
BRANCH  13  15
ATOM     15  O   UNL     1     100.502 107.884 130.831  0.00  0.00    +0.000 OA
BRANCH  15  17
ATOM     16  C   UNL     1      98.290 108.464 131.603  0.00  0.00    +0.000 C 
ATOM     17  C   UNL     1      99.615 107.827 131.964  0.00  0.00    +0.000 C 
ENDBRANCH  15  17
ENDBRANCH  13  15
ENDBRANCH   8  13
ENDBRANCH   1   8
BRANCH   5  18
ATOM     18  C   UNL     1     102.265 108.620 123.578  0.00  0.00    +0.000 C 
BRANCH  18  19
ATOM     19  C   UNL     1     100.818 108.964 123.294  0.00  0.00    +0.000 A 
ATOM     20  C   UNL     1     100.455 110.299 123.096  0.00  0.00    +0.000 A 
ATOM     21  C   UNL     1      99.132 110.634 122.792  0.00  0.00    +0.000 A 
ATOM     22  C   UNL     1      98.163 109.641 122.633  0.00  0.00    +0.000 A 
ATOM     23  C   UNL     1      98.502 108.315 122.836  0.00  0.00    +0.000 A 
ATOM     24  C   UNL     1      99.795 108.002 123.225  0.00  0.00    +0.000 A 
ATOM     25  F   UNL     1      99.996 106.734 123.599  0.00  0.00    +0.000 F 
ENDBRANCH  18  19
ENDBRANCH   5  18
TORSDOF 7
ENDMDL
MODEL 8
REMARK VINA RESULT:    -8.063      2.446      3.362
REMARK INTER + INTRA:         -12.252
REMARK INTER:                 -11.689
REMARK INTRA:                  -0.563
REMARK UNBOUND:                -0.889
REMARK  Name = 
REMARK  11 active torsions:
REMARK  status: ('A' for Active; 'I' for Inactive)
REMARK    1  A    between atoms: C_1  and  C_2
REMARK    2  A    between atoms: C_2  and  O_3
REMARK    3  A    between atoms: O_3  and  C_4
REMARK    4  A    between atoms: C_4  and  C_6
REMARK    5  A    between atoms: C_6  and  N_7
REMARK    6  A    between atoms: C_6  and  C_21
REMARK    7  A    between atoms: N_11  and  C_12
REMARK    8  A    between atoms: C_12  and  C_13
REMARK    9  A    between atoms: C_21  and  C_22
REMARK   10  A    between atoms: C_21  and  C_23
REMARK   11  A    between atoms: C_21  and  C_24
REMARK                            x       y       z     vdW  Elec       q    Type
REMARK                         _______ _______ _______ _____ _____    ______ ____
ROOT
ATOM      1  N   UNL     1     100.215 109.159 126.165  0.00  0.00    +0.000 N 
ATOM      2  C   UNL     1      99.609 108.333 125.255  0.00  0.00    +0.000 A 
ATOM      3  C   UNL     1      99.112 107.035 125.512  0.00  0.00    +0.000 A 
ATOM      4  C   UNL     1      98.831 106.472 124.318  0.00  0.00    +0.000 A 
ATOM      5  N   UNL     1      98.926 107.469 123.420  0.00  0.00    +0.000 N 
ATOM      6  N   UNL     1      99.336 108.649 123.974  0.00  0.00    +0.000 NA
ATOM      7  H   UNL     1     100.049 110.152 126.028  0.00  0.00    +0.000 HD
ENDROOT
BRANCH   1   8
ATOM      8  C   UNL     1     101.522 108.898 126.901  0.00  0.00    +0.000 C 
BRANCH   8   9
ATOM      9  C   UNL     1     102.703 109.877 126.609  0.00  0.00    +0.000 C 
ATOM     10  C   UNL     1     104.109 109.288 126.814  0.00  0.00    +0.000 C 
ATOM     11  C   UNL     1     102.708 110.130 125.100  0.00  0.00    +0.000 C 
ATOM     12  C   UNL     1     102.589 111.133 127.516  0.00  0.00    +0.000 C 
ENDBRANCH   8   9
BRANCH   8  13
ATOM     13  C   UNL     1     101.381 108.704 128.419  0.00  0.00    +0.000 C 
ATOM     14  O   UNL     1     102.092 107.905 129.057  0.00  0.00    +0.000 OA
BRANCH  13  15
ATOM     15  O   UNL     1     100.506 109.564 128.995  0.00  0.00    +0.000 OA
BRANCH  15  17
ATOM     16  C   UNL     1     100.621 111.214 130.754  0.00  0.00    +0.000 C 
ATOM     17  C   UNL     1     100.590 109.737 130.423  0.00  0.00    +0.000 C 
ENDBRANCH  15  17
ENDBRANCH  13  15
ENDBRANCH   8  13
ENDBRANCH   1   8
BRANCH   5  18
ATOM     18  C   UNL     1      98.472 107.334 122.042  0.00  0.00    +0.000 C 
BRANCH  18  19
ATOM     19  C   UNL     1      97.067 106.777 121.957  0.00  0.00    +0.000 A 
ATOM     20  C   UNL     1      96.855 105.539 121.345  0.00  0.00    +0.000 A 
ATOM     21  C   UNL     1      95.570 104.987 121.293  0.00  0.00    +0.000 A 
ATOM     22  C   UNL     1      94.489 105.638 121.892  0.00  0.00    +0.000 A 
ATOM     23  C   UNL     1      94.679 106.870 122.493  0.00  0.00    +0.000 A 
ATOM     24  C   UNL     1      95.939 107.449 122.460  0.00  0.00    +0.000 A 
ATOM     25  F   UNL     1      96.003 108.718 122.875  0.00  0.00    +0.000 F 
ENDBRANCH  18  19
ENDBRANCH   5  18
TORSDOF 7
ENDMDL
MODEL 9
REMARK VINA RESULT:    -7.984      3.984      7.080
REMARK INTER + INTRA:         -12.140
REMARK INTER:                 -11.471
REMARK INTRA:                  -0.669
REMARK UNBOUND:                -0.889
REMARK  Name = 
REMARK  11 active torsions:
REMARK  status: ('A' for Active; 'I' for Inactive)
REMARK    1  A    between atoms: C_1  and  C_2
REMARK    2  A    between atoms: C_2  and  O_3
REMARK    3  A    between atoms: O_3  and  C_4
REMARK    4  A    between atoms: C_4  and  C_6
REMARK    5  A    between atoms: C_6  and  N_7
REMARK    6  A    between atoms: C_6  and  C_21
REMARK    7  A    between atoms: N_11  and  C_12
REMARK    8  A    between atoms: C_12  and  C_13
REMARK    9  A    between atoms: C_21  and  C_22
REMARK   10  A    between atoms: C_21  and  C_23
REMARK   11  A    between atoms: C_21  and  C_24
REMARK                            x       y       z     vdW  Elec       q    Type
REMARK                         _______ _______ _______ _____ _____    ______ ____
ROOT
ATOM      1  N   UNL     1      99.673 106.191 124.355  0.00  0.00    +0.000 N 
ATOM      2  C   UNL     1     100.039 106.955 125.432  0.00  0.00    +0.000 A 
ATOM      3  C   UNL     1      99.165 107.688 126.266  0.00  0.00    +0.000 A 
ATOM      4  C   UNL     1      99.929 108.494 127.034  0.00  0.00    +0.000 A 
ATOM      5  N   UNL     1     101.195 108.084 126.836  0.00  0.00    +0.000 N 
ATOM      6  N   UNL     1     101.293 107.087 125.905  0.00  0.00    +0.000 NA
ATOM      7  H   UNL     1     100.248 105.369 124.191  0.00  0.00    +0.000 HD
ENDROOT
BRANCH   1   8
ATOM      8  C   UNL     1      99.002 106.679 123.079  0.00  0.00    +0.000 C 
BRANCH   8   9
ATOM      9  C   UNL     1      97.670 105.974 122.670  0.00  0.00    +0.000 C 
ATOM     10  C   UNL     1      97.051 106.459 121.347  0.00  0.00    +0.000 C 
ATOM     11  C   UNL     1      98.023 104.528 122.315  0.00  0.00    +0.000 C 
ATOM     12  C   UNL     1      96.602 106.168 123.780  0.00  0.00    +0.000 C 
ENDBRANCH   8   9
BRANCH   8  13
ATOM     13  C   UNL     1      98.824 108.203 122.985  0.00  0.00    +0.000 C 
ATOM     14  O   UNL     1      97.794 108.779 123.384  0.00  0.00    +0.000 OA
BRANCH  13  15
ATOM     15  O   UNL     1      99.930 108.851 122.545  0.00  0.00    +0.000 OA
BRANCH  15  17
ATOM     16  C   UNL     1     101.977 109.886 123.299  0.00  0.00    +0.000 C 
ATOM     17  C   UNL     1     100.465 109.893 123.384  0.00  0.00    +0.000 C 
ENDBRANCH  15  17
ENDBRANCH  13  15
ENDBRANCH   8  13
ENDBRANCH   1   8
BRANCH   5  18
ATOM     18  C   UNL     1     102.309 108.540 127.657  0.00  0.00    +0.000 C 
BRANCH  18  19
ATOM     19  C   UNL     1     102.756 109.937 127.284  0.00  0.00    +0.000 A 
ATOM     20  C   UNL     1     103.758 110.105 126.325  0.00  0.00    +0.000 A 
ATOM     21  C   UNL     1     104.157 111.389 125.937  0.00  0.00    +0.000 A 
ATOM     22  C   UNL     1     103.530 112.520 126.462  0.00  0.00    +0.000 A 
ATOM     23  C   UNL     1     102.543 112.373 127.421  0.00  0.00    +0.000 A 
ATOM     24  C   UNL     1     102.218 111.100 127.864  0.00  0.00    +0.000 A 
ATOM     25  F   UNL     1     101.410 111.047 128.928  0.00  0.00    +0.000 F 
ENDBRANCH  18  19
ENDBRANCH   5  18
TORSDOF 7
ENDMDL
MODEL 10
REMARK VINA RESULT:    -7.909      2.766      4.757
REMARK INTER + INTRA:         -12.034
REMARK INTER:                 -11.735
REMARK INTRA:                  -0.300
REMARK UNBOUND:                -0.889
REMARK  Name = 
REMARK  11 active torsions:
REMARK  status: ('A' for Active; 'I' for Inactive)
REMARK    1  A    between atoms: C_1  and  C_2
REMARK    2  A    between atoms: C_2  and  O_3
REMARK    3  A    between atoms: O_3  and  C_4
REMARK    4  A    between atoms: C_4  and  C_6
REMARK    5  A    between atoms: C_6  and  N_7
REMARK    6  A    between atoms: C_6  and  C_21
REMARK    7  A    between atoms: N_11  and  C_12
REMARK    8  A    between atoms: C_12  and  C_13
REMARK    9  A    between atoms: C_21  and  C_22
REMARK   10  A    between atoms: C_21  and  C_23
REMARK   11  A    between atoms: C_21  and  C_24
REMARK                            x       y       z     vdW  Elec       q    Type
REMARK                         _______ _______ _______ _____ _____    ______ ____
ROOT
ATOM      1  N   UNL     1      99.266 108.941 128.394  0.00  0.00    +0.000 N 
ATOM      2  C   UNL     1      99.680 108.299 127.257  0.00  0.00    +0.000 A 
ATOM      3  C   UNL     1     100.276 107.019 127.197  0.00  0.00    +0.000 A 
ATOM      4  C   UNL     1     100.761 106.863 125.946  0.00  0.00    +0.000 A 
ATOM      5  N   UNL     1     100.265 107.894 125.238  0.00  0.00    +0.000 N 
ATOM      6  N   UNL     1      99.534 108.762 126.001  0.00  0.00    +0.000 NA
ATOM      7  H   UNL     1      98.450 109.537 128.283  0.00  0.00    +0.000 HD
ENDROOT
BRANCH   1   8
ATOM      8  C   UNL     1     100.141 109.388 129.557  0.00  0.00    +0.000 C 
BRANCH   8   9
ATOM      9  C   UNL     1      99.993 108.596 130.895  0.00  0.00    +0.000 C 
ATOM     10  C   UNL     1      98.550 108.426 131.400  0.00  0.00    +0.000 C 
ATOM     11  C   UNL     1     100.371 107.143 130.595  0.00  0.00    +0.000 C 
ATOM     12  C   UNL     1     100.799 109.297 132.021  0.00  0.00    +0.000 C 
ENDBRANCH   8   9
BRANCH   8  13
ATOM     13  C   UNL     1     101.632 109.547 129.219  0.00  0.00    +0.000 C 
ATOM     14  O   UNL     1     102.413 108.578 129.179  0.00  0.00    +0.000 OA
BRANCH  13  15
ATOM     15  O   UNL     1     101.974 110.808 128.859  0.00  0.00    +0.000 OA
BRANCH  15  17
ATOM     16  C   UNL     1     102.558 112.513 127.253  0.00  0.00    +0.000 C 
ATOM     17  C   UNL     1     102.257 111.045 127.466  0.00  0.00    +0.000 C 
ENDBRANCH  15  17
ENDBRANCH  13  15
ENDBRANCH   8  13
ENDBRANCH   1   8
BRANCH   5  18
ATOM     18  C   UNL     1     100.358 107.970 123.786  0.00  0.00    +0.000 C 
BRANCH  18  19
ATOM     19  C   UNL     1      99.154 107.357 123.105  0.00  0.00    +0.000 A 
ATOM     20  C   UNL     1      99.203 106.023 122.693  0.00  0.00    +0.000 A 
ATOM     21  C   UNL     1      98.086 105.426 122.099  0.00  0.00    +0.000 A 
ATOM     22  C   UNL     1      96.892 106.134 121.950  0.00  0.00    +0.000 A 
ATOM     23  C   UNL     1      96.829 107.459 122.343  0.00  0.00    +0.000 A 
ATOM     24  C   UNL     1      97.968 108.068 122.848  0.00  0.00    +0.000 A 
ATOM     25  F   UNL     1      97.891 109.392 123.013  0.00  0.00    +0.000 F 
ENDBRANCH  18  19
ENDBRANCH   5  18
TORSDOF 7
ENDMDL
