MODEL 1
REMARK VINA RESULT:    -9.072      0.000      0.000
REMARK INTER + INTRA:         -10.111
REMARK INTER:                 -10.132
REMARK INTRA:                   0.021
REMARK UNBOUND:                 0.021
REMARK  Name = 
REMARK  4 active torsions:
REMARK  status: ('A' for Active; 'I' for Inactive)
REMARK    1  A    between atoms: C_1  and  C_2
REMARK    2  A    between atoms: C_2  and  C_3
REMARK    3  A    between atoms: C_3  and  C_4
REMARK    4  A    between atoms: C_3  and  N_5
REMARK                            x       y       z     vdW  Elec       q    Type
REMARK                         _______ _______ _______ _____ _____    ______ ____
ROOT
ATOM      1  N   UNL     1     -41.111-160.570 311.067  0.00  0.00    +0.000 N 
ATOM      2  C   UNL     1     -41.622-159.337 310.621  0.00  0.00    +0.000 C 
ATOM      3  O   UNL     1     -42.366-158.607 311.277  0.00  0.00    +0.000 OA
ATOM      4  C   UNL     1     -40.977-158.887 309.322  0.00  0.00    +0.000 C 
ATOM      5  C   UNL     1     -41.068-159.960 308.252  0.00  0.00    +0.000 C 
ATOM      6  C   UNL     1     -40.474-161.273 308.774  0.00  0.00    +0.000 C 
ATOM      7  C   UNL     1     -40.572-162.381 307.716  0.00  0.00    +0.000 C 
ATOM      8  N   UNL     1     -40.150-163.655 308.257  0.00  0.00    +0.000 N 
ATOM      9  C   UNL     1     -39.074-164.347 307.780  0.00  0.00    +0.000 A 
ATOM     10  N   UNL     1     -37.891-163.722 307.636  0.00  0.00    +0.000 NA
ATOM     11  C   UNL     1     -36.853-164.462 307.170  0.00  0.00    +0.000 A 
ATOM     12  C   UNL     1     -36.969-165.772 306.791  0.00  0.00    +0.000 A 
ATOM     13  F   UNL     1     -35.942-166.469 306.291  0.00  0.00    +0.000 F 
ATOM     14  C   UNL     1     -38.210-166.323 306.955  0.00  0.00    +0.000 A 
ATOM     15  N   UNL     1     -39.259-165.647 307.477  0.00  0.00    +0.000 NA
ATOM     16  C   UNL     1     -40.852-164.145 309.411  0.00  0.00    +0.000 C 
ATOM     17  C   UNL     1     -40.746-163.077 310.476  0.00  0.00    +0.000 C 
ATOM     18  C   UNL     1     -41.206-161.679 310.070  0.00  0.00    +0.000 C 
ENDROOT
BRANCH   1  19
ATOM     19  C   UNL     1     -40.589-160.638 312.478  0.00  0.00    +0.000 C 
ATOM     20  C   UNL     1     -39.218-161.334 312.467  0.00  0.00    +0.000 C 
BRANCH  19  22
ATOM     21  C   UNL     1     -42.791-160.787 313.930  0.00  0.00    +0.000 C 
ATOM     22  C   UNL     1     -41.477-161.373 313.487  0.00  0.00    +0.000 C 
ENDBRANCH  19  22
ENDBRANCH   1  19
TORSDOF 2
ENDMDL
MODEL 2
REMARK VINA RESULT:    -8.090      4.868      7.506
REMARK INTER + INTRA:          -9.015
REMARK INTER:                  -8.907
REMARK INTRA:                  -0.107
REMARK UNBOUND:                 0.021
REMARK  Name = 
REMARK  4 active torsions:
REMARK  status: ('A' for Active; 'I' for Inactive)
REMARK    1  A    between atoms: C_1  and  C_2
REMARK    2  A    between atoms: C_2  and  C_3
REMARK    3  A    between atoms: C_3  and  C_4
REMARK    4  A    between atoms: C_3  and  N_5
REMARK                            x       y       z     vdW  Elec       q    Type
REMARK                         _______ _______ _______ _____ _____    ______ ____
ROOT
ATOM      1  N   UNL     1     -41.268-161.044 309.999  0.00  0.00    +0.000 N 
ATOM      2  C   UNL     1     -40.192-161.769 309.454  0.00  0.00    +0.000 C 
ATOM      3  O   UNL     1     -39.460-162.524 310.093  0.00  0.00    +0.000 OA
ATOM      4  C   UNL     1     -40.164-161.696 307.937  0.00  0.00    +0.000 C 
ATOM      5  C   UNL     1     -40.188-160.259 307.446  0.00  0.00    +0.000 C 
ATOM      6  C   UNL     1     -41.392-159.521 308.044  0.00  0.00    +0.000 C 
ATOM      7  C   UNL     1     -41.428-158.059 307.578  0.00  0.00    +0.000 C 
ATOM      8  N   UNL     1     -42.472-157.323 308.256  0.00  0.00    +0.000 N 
ATOM      9  C   UNL     1     -43.531-156.760 307.603  0.00  0.00    +0.000 A 
ATOM     10  N   UNL     1     -44.253-157.501 306.742  0.00  0.00    +0.000 NA
ATOM     11  C   UNL     1     -45.301-156.894 306.131  0.00  0.00    +0.000 A 
ATOM     12  C   UNL     1     -45.613-155.571 306.302  0.00  0.00    +0.000 A 
ATOM     13  F   UNL     1     -46.624-154.982 305.653  0.00  0.00    +0.000 F 
ATOM     14  C   UNL     1     -44.818-154.889 307.181  0.00  0.00    +0.000 A 
ATOM     15  N   UNL     1     -43.804-155.466 307.865  0.00  0.00    +0.000 NA
ATOM     16  C   UNL     1     -42.423-157.281 309.691  0.00  0.00    +0.000 C 
ATOM     17  C   UNL     1     -42.412-158.714 310.173  0.00  0.00    +0.000 C 
ATOM     18  C   UNL     1     -41.326-159.610 309.583  0.00  0.00    +0.000 C 
ENDROOT
BRANCH   1  19
ATOM     19  C   UNL     1     -42.181-161.766 310.954  0.00  0.00    +0.000 C 
ATOM     20  C   UNL     1     -43.539-161.991 310.270  0.00  0.00    +0.000 C 
BRANCH  19  22
ATOM     21  C   UNL     1     -41.442-161.140 313.413  0.00  0.00    +0.000 C 
ATOM     22  C   UNL     1     -42.444-161.066 312.291  0.00  0.00    +0.000 C 
ENDBRANCH  19  22
ENDBRANCH   1  19
TORSDOF 2
ENDMDL
MODEL 3
REMARK VINA RESULT:    -7.947      4.300      6.676
REMARK INTER + INTRA:          -8.854
REMARK INTER:                  -8.973
REMARK INTRA:                   0.118
REMARK UNBOUND:                 0.021
REMARK  Name = 
REMARK  4 active torsions:
REMARK  status: ('A' for Active; 'I' for Inactive)
REMARK    1  A    between atoms: C_1  and  C_2
REMARK    2  A    between atoms: C_2  and  C_3
REMARK    3  A    between atoms: C_3  and  C_4
REMARK    4  A    between atoms: C_3  and  N_5
REMARK                            x       y       z     vdW  Elec       q    Type
REMARK                         _______ _______ _______ _____ _____    ______ ____
ROOT
ATOM      1  N   UNL     1     -43.364-156.582 306.262  0.00  0.00    +0.000 N 
ATOM      2  C   UNL     1     -43.692-155.326 306.805  0.00  0.00    +0.000 C 
ATOM      3  O   UNL     1     -43.863-154.300 306.148  0.00  0.00    +0.000 OA
ATOM      4  C   UNL     1     -44.036-155.415 308.282  0.00  0.00    +0.000 C 
ATOM      5  C   UNL     1     -42.938-156.107 309.071  0.00  0.00    +0.000 C 
ATOM      6  C   UNL     1     -42.638-157.480 308.458  0.00  0.00    +0.000 C 
ATOM      7  C   UNL     1     -41.517-158.192 309.227  0.00  0.00    +0.000 C 
ATOM      8  N   UNL     1     -41.130-159.418 308.563  0.00  0.00    +0.000 N 
ATOM      9  C   UNL     1     -41.265-160.651 309.136  0.00  0.00    +0.000 A 
ATOM     10  N   UNL     1     -42.446-161.008 309.674  0.00  0.00    +0.000 NA
ATOM     11  C   UNL     1     -42.528-162.248 310.218  0.00  0.00    +0.000 A 
ATOM     12  C   UNL     1     -41.468-163.110 310.297  0.00  0.00    +0.000 A 
ATOM     13  F   UNL     1     -41.560-164.311 310.880  0.00  0.00    +0.000 F 
ATOM     14  C   UNL     1     -40.302-162.660 309.742  0.00  0.00    +0.000 A 
ATOM     15  N   UNL     1     -40.188-161.460 309.128  0.00  0.00    +0.000 NA
ATOM     16  C   UNL     1     -40.676-159.316 307.204  0.00  0.00    +0.000 C 
ATOM     17  C   UNL     1     -41.779-158.639 306.423  0.00  0.00    +0.000 C 
ATOM     18  C   UNL     1     -42.263-157.299 306.973  0.00  0.00    +0.000 C 
ENDROOT
BRANCH   1  19
ATOM     19  C   UNL     1     -44.107-157.022 305.028  0.00  0.00    +0.000 C 
ATOM     20  C   UNL     1     -43.906-155.969 303.925  0.00  0.00    +0.000 C 
BRANCH  19  22
ATOM     21  C   UNL     1     -46.323-158.339 304.446  0.00  0.00    +0.000 C 
ATOM     22  C   UNL     1     -45.614-157.240 305.194  0.00  0.00    +0.000 C 
ENDBRANCH  19  22
ENDBRANCH   1  19
TORSDOF 2
ENDMDL
MODEL 4
REMARK VINA RESULT:    -6.337      3.950      7.064
REMARK INTER + INTRA:          -7.057
REMARK INTER:                  -6.999
REMARK INTRA:                  -0.058
REMARK UNBOUND:                 0.021
REMARK  Name = 
REMARK  4 active torsions:
REMARK  status: ('A' for Active; 'I' for Inactive)
REMARK    1  A    between atoms: C_1  and  C_2
REMARK    2  A    between atoms: C_2  and  C_3
REMARK    3  A    between atoms: C_3  and  C_4
REMARK    4  A    between atoms: C_3  and  N_5
REMARK                            x       y       z     vdW  Elec       q    Type
REMARK                         _______ _______ _______ _____ _____    ______ ____
ROOT
ATOM      1  N   UNL     1     -40.933-160.894 308.880  0.00  0.00    +0.000 N 
ATOM      2  C   UNL     1     -41.008-159.713 308.118  0.00  0.00    +0.000 C 
ATOM      3  O   UNL     1     -40.514-159.566 307.000  0.00  0.00    +0.000 OA
ATOM      4  C   UNL     1     -41.963-158.700 308.727  0.00  0.00    +0.000 C 
ATOM      5  C   UNL     1     -41.626-158.418 310.180  0.00  0.00    +0.000 C 
ATOM      6  C   UNL     1     -41.584-159.730 310.973  0.00  0.00    +0.000 C 
ATOM      7  C   UNL     1     -41.226-159.474 312.442  0.00  0.00    +0.000 C 
ATOM      8  N   UNL     1     -41.039-160.718 313.156  0.00  0.00    +0.000 N 
ATOM      9  C   UNL     1     -41.824-161.100 314.207  0.00  0.00    +0.000 A 
ATOM     10  N   UNL     1     -43.164-161.071 314.082  0.00  0.00    +0.000 NA
ATOM     11  C   UNL     1     -43.894-161.472 315.153  0.00  0.00    +0.000 A 
ATOM     12  C   UNL     1     -43.341-161.839 316.350  0.00  0.00    +0.000 A 
ATOM     13  F   UNL     1     -44.083-162.188 317.408  0.00  0.00    +0.000 F 
ATOM     14  C   UNL     1     -41.974-161.823 316.395  0.00  0.00    +0.000 A 
ATOM     15  N   UNL     1     -41.201-161.496 315.334  0.00  0.00    +0.000 NA
ATOM     16  C   UNL     1     -40.040-161.620 312.656  0.00  0.00    +0.000 C 
ATOM     17  C   UNL     1     -40.388-161.907 311.213  0.00  0.00    +0.000 C 
ATOM     18  C   UNL     1     -40.568-160.686 310.314  0.00  0.00    +0.000 C 
ENDROOT
BRANCH   1  19
ATOM     19  C   UNL     1     -41.172-162.198 308.167  0.00  0.00    +0.000 C 
ATOM     20  C   UNL     1     -42.184-163.028 308.974  0.00  0.00    +0.000 C 
BRANCH  19  22
ATOM     21  C   UNL     1     -38.601-162.452 307.612  0.00  0.00    +0.000 C 
ATOM     22  C   UNL     1     -39.936-163.072 307.933  0.00  0.00    +0.000 C 
ENDBRANCH  19  22
ENDBRANCH   1  19
TORSDOF 2
ENDMDL
