MODEL 1
REMARK VINA RESULT:    -9.886      0.000      0.000
REMARK INTER + INTRA:         -14.790
REMARK INTER:                 -13.932
REMARK INTRA:                  -0.858
REMARK UNBOUND:                -0.858
REMARK  Name = 
REMARK  9 active torsions:
REMARK  status: ('A' for Active; 'I' for Inactive)
REMARK    1  A    between atoms: C_1  and  C_2
REMARK    2  A    between atoms: C_2  and  C_3
REMARK    3  A    between atoms: C_5  and  C_6
REMARK    4  A    between atoms: N_7  and  C_8
REMARK    5  A    between atoms: C_8  and  C_9
REMARK    6  A    between atoms: C_9  and  C_10
REMARK    7  A    between atoms: C_10  and  N_11
REMARK    8  A    between atoms: C_12  and  C_14
REMARK    9  A    between atoms: C_19  and  C_20
REMARK                            x       y       z     vdW  Elec       q    Type
REMARK                         _______ _______ _______ _____ _____    ______ ____
ROOT
ATOM      1  N   UNL     1     -42.655-158.995 311.163  0.00  0.00    +0.000 N 
ATOM      2  C   UNL     1     -42.850-160.254 311.654  0.00  0.00    +0.000 C 
ATOM      3  O   UNL     1     -43.623-160.440 312.608  0.00  0.00    +0.000 OA
ATOM      4  H   UNL     1     -43.047-158.296 311.788  0.00  0.00    +0.000 HD
ENDROOT
BRANCH   2   5
ATOM      5  C   UNL     1     -42.160-161.399 311.023  0.00  0.00    +0.000 A 
ATOM      6  C   UNL     1     -42.866-162.100 310.045  0.00  0.00    +0.000 A 
ATOM      7  C   UNL     1     -42.270-163.202 309.434  0.00  0.00    +0.000 A 
ATOM      8  C   UNL     1     -40.943-163.537 309.710  0.00  0.00    +0.000 A 
ATOM      9  C   UNL     1     -40.234-162.834 310.670  0.00  0.00    +0.000 A 
ATOM     10  C   UNL     1     -40.860-161.813 311.385  0.00  0.00    +0.000 A 
BRANCH  10  11
ATOM     11  C   UNL     1     -40.094-161.204 312.510  0.00  0.00    +0.000 C 
ATOM     12  F   UNL     1     -40.004-159.850 312.469  0.00  0.00    +0.000 F 
ATOM     13  F   UNL     1     -40.664-161.475 313.717  0.00  0.00    +0.000 F 
ATOM     14  F   UNL     1     -38.812-161.620 312.523  0.00  0.00    +0.000 F 
ENDBRANCH  10  11
ENDBRANCH   2   5
BRANCH   1  15
ATOM     15  C   UNL     1     -41.801-158.599 310.051  0.00  0.00    +0.000 C 
BRANCH  15  16
ATOM     16  C   UNL     1     -42.471-158.653 308.718  0.00  0.00    +0.000 C 
BRANCH  16  17
ATOM     17  C   UNL     1     -43.231-157.361 308.399  0.00  0.00    +0.000 C 
BRANCH  17  22
ATOM     18  C   UNL     1     -45.541-157.546 305.754  0.00  0.00    +0.000 A 
ATOM     19  C   UNL     1     -44.494-157.036 304.996  0.00  0.00    +0.000 A 
ATOM     20  C   UNL     1     -43.507-156.755 305.892  0.00  0.00    +0.000 A 
ATOM     21  C   UNL     1     -42.249-156.137 305.476  0.00  0.00    +0.000 C 
ATOM     22  N   UNL     1     -43.909-157.286 307.104  0.00  0.00    +0.000 N 
ATOM     23  N   UNL     1     -45.198-157.722 307.036  0.00  0.00    +0.000 NA
BRANCH  18  25
ATOM     24  C   UNL     1     -46.848-158.902 304.134  0.00  0.00    +0.000 C 
ATOM     25  C   UNL     1     -46.892-157.812 305.205  0.00  0.00    +0.000 C 
ENDBRANCH  18  25
ENDBRANCH  17  22
ENDBRANCH  16  17
ENDBRANCH  15  16
ENDBRANCH   1  15
TORSDOF 7
ENDMDL
MODEL 2
REMARK VINA RESULT:    -9.280      4.565      7.906
REMARK INTER + INTRA:         -13.935
REMARK INTER:                 -13.123
REMARK INTRA:                  -0.812
REMARK UNBOUND:                -0.858
REMARK  Name = 
REMARK  9 active torsions:
REMARK  status: ('A' for Active; 'I' for Inactive)
REMARK    1  A    between atoms: C_1  and  C_2
REMARK    2  A    between atoms: C_2  and  C_3
REMARK    3  A    between atoms: C_5  and  C_6
REMARK    4  A    between atoms: N_7  and  C_8
REMARK    5  A    between atoms: C_8  and  C_9
REMARK    6  A    between atoms: C_9  and  C_10
REMARK    7  A    between atoms: C_10  and  N_11
REMARK    8  A    between atoms: C_12  and  C_14
REMARK    9  A    between atoms: C_19  and  C_20
REMARK                            x       y       z     vdW  Elec       q    Type
REMARK                         _______ _______ _______ _____ _____    ______ ____
ROOT
ATOM      1  N   UNL     1     -41.066-162.592 308.493  0.00  0.00    +0.000 N 
ATOM      2  C   UNL     1     -41.974-162.167 309.420  0.00  0.00    +0.000 C 
ATOM      3  O   UNL     1     -42.945-162.882 309.717  0.00  0.00    +0.000 OA
ATOM      4  H   UNL     1     -41.408-163.410 307.996  0.00  0.00    +0.000 HD
ENDROOT
BRANCH   2   5
ATOM      5  C   UNL     1     -41.780-160.863 310.089  0.00  0.00    +0.000 A 
ATOM      6  C   UNL     1     -42.342-159.747 309.469  0.00  0.00    +0.000 A 
ATOM      7  C   UNL     1     -42.170-158.490 310.047  0.00  0.00    +0.000 A 
ATOM      8  C   UNL     1     -41.542-158.357 311.287  0.00  0.00    +0.000 A 
ATOM      9  C   UNL     1     -40.996-159.466 311.912  0.00  0.00    +0.000 A 
ATOM     10  C   UNL     1     -41.045-160.709 311.283  0.00  0.00    +0.000 A 
BRANCH  10  11
ATOM     11  C   UNL     1     -40.302-161.827 311.934  0.00  0.00    +0.000 C 
ATOM     12  F   UNL     1     -39.287-162.342 311.193  0.00  0.00    +0.000 F 
ATOM     13  F   UNL     1     -39.714-161.435 313.099  0.00  0.00    +0.000 F 
ATOM     14  F   UNL     1     -41.102-162.884 312.175  0.00  0.00    +0.000 F 
ENDBRANCH  10  11
ENDBRANCH   2   5
BRANCH   1  15
ATOM     15  C   UNL     1     -39.872-161.894 308.036  0.00  0.00    +0.000 C 
BRANCH  15  16
ATOM     16  C   UNL     1     -38.681-162.775 307.853  0.00  0.00    +0.000 C 
BRANCH  16  17
ATOM     17  C   UNL     1     -39.024-164.060 307.090  0.00  0.00    +0.000 C 
BRANCH  17  22
ATOM     18  C   UNL     1     -36.006-165.859 307.236  0.00  0.00    +0.000 A 
ATOM     19  C   UNL     1     -36.651-166.729 306.364  0.00  0.00    +0.000 A 
ATOM     20  C   UNL     1     -37.930-166.268 306.280  0.00  0.00    +0.000 A 
ATOM     21  C   UNL     1     -38.944-166.966 305.492  0.00  0.00    +0.000 C 
ATOM     22  N   UNL     1     -37.955-165.046 306.927  0.00  0.00    +0.000 N 
ATOM     23  N   UNL     1     -36.778-164.820 307.575  0.00  0.00    +0.000 NA
BRANCH  18  25
ATOM     24  C   UNL     1     -33.623-166.207 306.627  0.00  0.00    +0.000 C 
ATOM     25  C   UNL     1     -34.640-166.095 307.762  0.00  0.00    +0.000 C 
ENDBRANCH  18  25
ENDBRANCH  17  22
ENDBRANCH  16  17
ENDBRANCH  15  16
ENDBRANCH   1  15
TORSDOF 7
ENDMDL
MODEL 3
REMARK VINA RESULT:    -9.233      1.536      2.303
REMARK INTER + INTRA:         -13.870
REMARK INTER:                 -13.342
REMARK INTRA:                  -0.528
REMARK UNBOUND:                -0.858
REMARK  Name = 
REMARK  9 active torsions:
REMARK  status: ('A' for Active; 'I' for Inactive)
REMARK    1  A    between atoms: C_1  and  C_2
REMARK    2  A    between atoms: C_2  and  C_3
REMARK    3  A    between atoms: C_5  and  C_6
REMARK    4  A    between atoms: N_7  and  C_8
REMARK    5  A    between atoms: C_8  and  C_9
REMARK    6  A    between atoms: C_9  and  C_10
REMARK    7  A    between atoms: C_10  and  N_11
REMARK    8  A    between atoms: C_12  and  C_14
REMARK    9  A    between atoms: C_19  and  C_20
REMARK                            x       y       z     vdW  Elec       q    Type
REMARK                         _______ _______ _______ _____ _____    ______ ____
ROOT
ATOM      1  N   UNL     1     -42.407-160.121 309.218  0.00  0.00    +0.000 N 
ATOM      2  C   UNL     1     -42.497-161.221 310.020  0.00  0.00    +0.000 C 
ATOM      3  O   UNL     1     -42.635-162.350 309.521  0.00  0.00    +0.000 OA
ATOM      4  H   UNL     1     -42.658-160.347 308.259  0.00  0.00    +0.000 HD
ENDROOT
BRANCH   2   5
ATOM      5  C   UNL     1     -42.401-161.066 311.488  0.00  0.00    +0.000 A 
ATOM      6  C   UNL     1     -43.507-160.516 312.137  0.00  0.00    +0.000 A 
ATOM      7  C   UNL     1     -43.460-160.327 313.517  0.00  0.00    +0.000 A 
ATOM      8  C   UNL     1     -42.371-160.784 314.261  0.00  0.00    +0.000 A 
ATOM      9  C   UNL     1     -41.278-161.344 313.621  0.00  0.00    +0.000 A 
ATOM     10  C   UNL     1     -41.254-161.419 312.229  0.00  0.00    +0.000 A 
BRANCH  10  11
ATOM     11  C   UNL     1     -39.986-161.885 311.597  0.00  0.00    +0.000 C 
ATOM     12  F   UNL     1     -39.670-161.264 310.432  0.00  0.00    +0.000 F 
ATOM     13  F   UNL     1     -38.909-161.672 312.404  0.00  0.00    +0.000 F 
ATOM     14  F   UNL     1     -40.042-163.191 311.270  0.00  0.00    +0.000 F 
ENDBRANCH  10  11
ENDBRANCH   2   5
BRANCH   1  15
ATOM     15  C   UNL     1     -42.232-158.734 309.630  0.00  0.00    +0.000 C 
BRANCH  15  16
ATOM     16  C   UNL     1     -42.337-157.748 308.515  0.00  0.00    +0.000 C 
BRANCH  16  17
ATOM     17  C   UNL     1     -43.716-157.081 308.460  0.00  0.00    +0.000 C 
BRANCH  17  22
ATOM     18  C   UNL     1     -45.820-157.596 305.689  0.00  0.00    +0.000 A 
ATOM     19  C   UNL     1     -45.019-156.633 305.086  0.00  0.00    +0.000 A 
ATOM     20  C   UNL     1     -44.191-156.187 306.071  0.00  0.00    +0.000 A 
ATOM     21  C   UNL     1     -43.231-155.111 305.834  0.00  0.00    +0.000 C 
ATOM     22  N   UNL     1     -44.380-157.024 307.156  0.00  0.00    +0.000 N 
ATOM     23  N   UNL     1     -45.434-157.859 306.944  0.00  0.00    +0.000 NA
BRANCH  18  25
ATOM     24  C   UNL     1     -47.417-159.497 305.739  0.00  0.00    +0.000 C 
ATOM     25  C   UNL     1     -46.993-158.214 305.027  0.00  0.00    +0.000 C 
ENDBRANCH  18  25
ENDBRANCH  17  22
ENDBRANCH  16  17
ENDBRANCH  15  16
ENDBRANCH   1  15
TORSDOF 7
ENDMDL
MODEL 4
REMARK VINA RESULT:    -9.030      2.373      3.036
REMARK INTER + INTRA:         -13.583
REMARK INTER:                 -13.475
REMARK INTRA:                  -0.108
REMARK UNBOUND:                -0.858
REMARK  Name = 
REMARK  9 active torsions:
REMARK  status: ('A' for Active; 'I' for Inactive)
REMARK    1  A    between atoms: C_1  and  C_2
REMARK    2  A    between atoms: C_2  and  C_3
REMARK    3  A    between atoms: C_5  and  C_6
REMARK    4  A    between atoms: N_7  and  C_8
REMARK    5  A    between atoms: C_8  and  C_9
REMARK    6  A    between atoms: C_9  and  C_10
REMARK    7  A    between atoms: C_10  and  N_11
REMARK    8  A    between atoms: C_12  and  C_14
REMARK    9  A    between atoms: C_19  and  C_20
REMARK                            x       y       z     vdW  Elec       q    Type
REMARK                         _______ _______ _______ _____ _____    ______ ____
ROOT
ATOM      1  N   UNL     1     -41.490-159.332 308.209  0.00  0.00    +0.000 N 
ATOM      2  C   UNL     1     -40.673-160.279 308.756  0.00  0.00    +0.000 C 
ATOM      3  O   UNL     1     -39.831-160.861 308.053  0.00  0.00    +0.000 OA
ATOM      4  H   UNL     1     -41.432-159.344 307.193  0.00  0.00    +0.000 HD
ENDROOT
BRANCH   2   5
ATOM      5  C   UNL     1     -40.777-160.588 310.198  0.00  0.00    +0.000 A 
ATOM      6  C   UNL     1     -40.537-159.539 311.086  0.00  0.00    +0.000 A 
ATOM      7  C   UNL     1     -40.600-159.780 312.457  0.00  0.00    +0.000 A 
ATOM      8  C   UNL     1     -41.008-161.025 312.942  0.00  0.00    +0.000 A 
ATOM      9  C   UNL     1     -41.262-162.064 312.063  0.00  0.00    +0.000 A 
ATOM     10  C   UNL     1     -41.074-161.875 310.694  0.00  0.00    +0.000 A 
BRANCH  10  11
ATOM     11  C   UNL     1     -41.211-163.075 309.819  0.00  0.00    +0.000 C 
ATOM     12  F   UNL     1     -42.041-162.912 308.757  0.00  0.00    +0.000 F 
ATOM     13  F   UNL     1     -40.019-163.441 309.271  0.00  0.00    +0.000 F 
ATOM     14  F   UNL     1     -41.732-164.123 310.487  0.00  0.00    +0.000 F 
ENDBRANCH  10  11
ENDBRANCH   2   5
BRANCH   1  15
ATOM     15  C   UNL     1     -42.516-158.548 308.882  0.00  0.00    +0.000 C 
BRANCH  15  16
ATOM     16  C   UNL     1     -42.792-157.226 308.247  0.00  0.00    +0.000 C 
BRANCH  16  17
ATOM     17  C   UNL     1     -44.294-156.944 308.125  0.00  0.00    +0.000 C 
BRANCH  17  22
ATOM     18  C   UNL     1     -46.283-158.047 305.442  0.00  0.00    +0.000 A 
ATOM     19  C   UNL     1     -45.481-157.197 304.688  0.00  0.00    +0.000 A 
ATOM     20  C   UNL     1     -44.700-156.546 305.594  0.00  0.00    +0.000 A 
ATOM     21  C   UNL     1     -43.754-155.510 305.182  0.00  0.00    +0.000 C 
ATOM     22  N   UNL     1     -44.910-157.160 306.815  0.00  0.00    +0.000 N 
ATOM     23  N   UNL     1     -45.938-158.050 306.736  0.00  0.00    +0.000 NA
BRANCH  18  25
ATOM     24  C   UNL     1     -47.618-160.134 305.619  0.00  0.00    +0.000 C 
ATOM     25  C   UNL     1     -47.418-158.814 304.876  0.00  0.00    +0.000 C 
ENDBRANCH  18  25
ENDBRANCH  17  22
ENDBRANCH  16  17
ENDBRANCH  15  16
ENDBRANCH   1  15
TORSDOF 7
ENDMDL
