MODEL 1
REMARK VINA RESULT:     0.000      0.000      0.000
REMARK INTER + INTRA:          -2.486
REMARK INTER:                   0.000
REMARK INTRA:                  -2.486
REMARK UNBOUND:                -2.486
REMARK  Name = 
REMARK  11 active torsions:
REMARK  status: ('A' for Active; 'I' for Inactive)
REMARK    1  A    between atoms: C_1  and  C_2
REMARK    2  A    between atoms: C_2  and  C_3
REMARK    3  A    between atoms: C_3  and  C_4
REMARK    4  A    between atoms: C_3  and  C_5
REMARK    5  A    between atoms: C_8  and  C_9
REMARK    6  A    between atoms: N_11  and  C_12
REMARK    7  A    between atoms: C_12  and  C_13
REMARK    8  A    between atoms: C_13  and  O_14
REMARK    9  A    between atoms: C_13  and  C_15
REMARK   10  A    between atoms: C_15  and  O_16
REMARK   11  A    between atoms: O_16  and  C_17
REMARK                            x       y       z     vdW  Elec       q    Type
REMARK                         _______ _______ _______ _____ _____    ______ ____
ROOT
ATOM      1  C   UNL     1     -47.306-299.291  60.831  0.00  0.00    +0.000 C 
ATOM      2  C   UNL     1     -47.414-300.755  61.300  0.00  0.00    +0.000 C 
ATOM      3  N   UNL     1     -46.590-301.714  60.495  0.00  0.00    +0.000 NA
ATOM      4  C   UNL     1     -45.219-301.197  60.499  0.00  0.00    +0.000 C 
ATOM      5  C   UNL     1     -45.133-299.719  60.063  0.00  0.00    +0.000 C 
ATOM      6  O   UNL     1     -45.929-298.872  60.885  0.00  0.00    +0.000 OA
ENDROOT
BRANCH   1  10
ATOM      7  C   UNL     1     -49.212-296.748  62.298  0.00  0.00    +0.000 A 
ATOM      8  N   UNL     1     -49.248-297.573  63.354  0.00  0.00    +0.000 NA
ATOM      9  N   UNL     1     -48.512-298.593  62.895  0.00  0.00    +0.000 N 
ATOM     10  C   UNL     1     -48.064-298.346  61.634  0.00  0.00    +0.000 A 
ATOM     11  N   UNL     1     -48.495-297.172  61.236  0.00  0.00    +0.000 NA
ATOM     12  H   UNL     1     -48.372-299.414  63.487  0.00  0.00    +0.000 HD
BRANCH   7  13
ATOM     13  C   UNL     1     -49.879-295.431  62.241  0.00  0.00    +0.000 C 
ATOM     14  C   UNL     1     -51.271-295.526  62.856  0.00  0.00    +0.000 C 
BRANCH  13  16
ATOM     15  C   UNL     1     -51.290-294.339  60.442  0.00  0.00    +0.000 C 
ATOM     16  C   UNL     1     -49.939-294.928  60.780  0.00  0.00    +0.000 C 
ENDBRANCH  13  16
ENDBRANCH   7  13
ENDBRANCH   1  10
BRANCH   3  17
ATOM     17  C   UNL     1     -46.996-302.083  59.114  0.00  0.00    +0.000 C 
BRANCH  17  18
ATOM     18  C   UNL     1     -48.312-302.855  58.848  0.00  0.00    +0.000 C 
BRANCH  18  19
ATOM     19  O   UNL     1     -48.512-303.776  59.939  0.00  0.00    +0.000 OA
ATOM     20  H   UNL     1     -47.806-303.632  60.592  0.00  0.00    +0.000 HD
ENDBRANCH  18  19
BRANCH  18  21
ATOM     21  C   UNL     1     -49.657-302.144  58.669  0.00  0.00    +0.000 C 
BRANCH  21  22
ATOM     22  O   UNL     1     -50.459-301.834  59.831  0.00  0.00    +0.000 OA
BRANCH  22  23
ATOM     23  C   UNL     1     -50.801-300.522  59.957  0.00  0.00    +0.000 A 
ATOM     24  C   UNL     1     -50.583-299.606  58.953  0.00  0.00    +0.000 A 
ATOM     25  C   UNL     1     -51.129-298.319  59.070  0.00  0.00    +0.000 A 
ATOM     26  C   UNL     1     -51.987-298.001  60.125  0.00  0.00    +0.000 A 
ATOM     27  C   UNL     1     -52.071-298.880  61.189  0.00  0.00    +0.000 A 
ATOM     28  C   UNL     1     -51.295-300.040  61.152  0.00  0.00    +0.000 A 
ATOM     29  F   UNL     1     -51.203-300.837  62.217  0.00  0.00    +0.000 F 
ENDBRANCH  22  23
ENDBRANCH  21  22
ENDBRANCH  18  21
ENDBRANCH  17  18
ENDBRANCH   3  17
TORSDOF 9
ENDMDL
MODEL 2
REMARK VINA RESULT:     0.000      8.224     10.589
REMARK INTER + INTRA:          -2.486
REMARK INTER:                   0.000
REMARK INTRA:                  -2.486
REMARK UNBOUND:                -2.486
REMARK  Name = 
REMARK  11 active torsions:
REMARK  status: ('A' for Active; 'I' for Inactive)
REMARK    1  A    between atoms: C_1  and  C_2
REMARK    2  A    between atoms: C_2  and  C_3
REMARK    3  A    between atoms: C_3  and  C_4
REMARK    4  A    between atoms: C_3  and  C_5
REMARK    5  A    between atoms: C_8  and  C_9
REMARK    6  A    between atoms: N_11  and  C_12
REMARK    7  A    between atoms: C_12  and  C_13
REMARK    8  A    between atoms: C_13  and  O_14
REMARK    9  A    between atoms: C_13  and  C_15
REMARK   10  A    between atoms: C_15  and  O_16
REMARK   11  A    between atoms: O_16  and  C_17
REMARK                            x       y       z     vdW  Elec       q    Type
REMARK                         _______ _______ _______ _____ _____    ______ ____
ROOT
ATOM      1  C   UNL     1     -39.827-293.818  61.926  0.00  0.00    +0.000 C 
ATOM      2  C   UNL     1     -38.587-293.680  62.831  0.00  0.00    +0.000 C 
ATOM      3  N   UNL     1     -37.288-293.900  62.118  0.00  0.00    +0.000 NA
ATOM      4  C   UNL     1     -37.278-292.990  60.970  0.00  0.00    +0.000 C 
ATOM      5  C   UNL     1     -38.544-293.115  60.095  0.00  0.00    +0.000 C 
ATOM      6  O   UNL     1     -39.733-292.877  60.839  0.00  0.00    +0.000 OA
ENDROOT
BRANCH   1  10
ATOM      7  C   UNL     1     -43.075-293.582  63.212  0.00  0.00    +0.000 A 
ATOM      8  N   UNL     1     -42.488-292.874  64.188  0.00  0.00    +0.000 NA
ATOM      9  N   UNL     1     -41.217-292.886  63.771  0.00  0.00    +0.000 N 
ATOM     10  C   UNL     1     -41.091-293.561  62.596  0.00  0.00    +0.000 A 
ATOM     11  N   UNL     1     -42.266-294.009  62.219  0.00  0.00    +0.000 NA
ATOM     12  H   UNL     1     -40.500-292.429  64.339  0.00  0.00    +0.000 HD
BRANCH   7  13
ATOM     13  C   UNL     1     -44.517-293.895  63.155  0.00  0.00    +0.000 C 
ATOM     14  C   UNL     1     -45.018-294.292  64.540  0.00  0.00    +0.000 C 
BRANCH  13  16
ATOM     15  C   UNL     1     -45.748-296.049  62.638  0.00  0.00    +0.000 C 
ATOM     16  C   UNL     1     -44.778-295.012  62.117  0.00  0.00    +0.000 C 
ENDBRANCH  13  16
ENDBRANCH   7  13
ENDBRANCH   1  10
BRANCH   3  17
ATOM     17  C   UNL     1     -36.879-295.265  61.698  0.00  0.00    +0.000 C 
BRANCH  17  18
ATOM     18  C   UNL     1     -36.593-296.371  62.742  0.00  0.00    +0.000 C 
BRANCH  18  19
ATOM     19  O   UNL     1     -35.981-295.748  63.889  0.00  0.00    +0.000 OA
ATOM     20  H   UNL     1     -36.683-295.333  64.420  0.00  0.00    +0.000 HD
ENDBRANCH  18  19
BRANCH  18  21
ATOM     21  C   UNL     1     -37.698-297.266  63.311  0.00  0.00    +0.000 C 
BRANCH  21  22
ATOM     22  O   UNL     1     -38.447-296.825  64.466  0.00  0.00    +0.000 OA
BRANCH  22  23
ATOM     23  C   UNL     1     -39.798-296.796  64.294  0.00  0.00    +0.000 A 
ATOM     24  C   UNL     1     -40.410-297.342  63.188  0.00  0.00    +0.000 A 
ATOM     25  C   UNL     1     -41.809-297.449  63.163  0.00  0.00    +0.000 A 
ATOM     26  C   UNL     1     -42.569-297.129  64.289  0.00  0.00    +0.000 A 
ATOM     27  C   UNL     1     -41.953-296.450  65.324  0.00  0.00    +0.000 A 
ATOM     28  C   UNL     1     -40.603-296.124  65.191  0.00  0.00    +0.000 A 
ATOM     29  F   UNL     1     -40.001-295.326  66.073  0.00  0.00    +0.000 F 
ENDBRANCH  22  23
ENDBRANCH  21  22
ENDBRANCH  18  21
ENDBRANCH  17  18
ENDBRANCH   3  17
TORSDOF 9
ENDMDL
MODEL 3
REMARK VINA RESULT:     0.001      5.605      8.414
REMARK INTER + INTRA:          -2.484
REMARK INTER:                   0.000
REMARK INTRA:                  -2.484
REMARK UNBOUND:                -2.486
REMARK  Name = 
REMARK  11 active torsions:
REMARK  status: ('A' for Active; 'I' for Inactive)
REMARK    1  A    between atoms: C_1  and  C_2
REMARK    2  A    between atoms: C_2  and  C_3
REMARK    3  A    between atoms: C_3  and  C_4
REMARK    4  A    between atoms: C_3  and  C_5
REMARK    5  A    between atoms: C_8  and  C_9
REMARK    6  A    between atoms: N_11  and  C_12
REMARK    7  A    between atoms: C_12  and  C_13
REMARK    8  A    between atoms: C_13  and  O_14
REMARK    9  A    between atoms: C_13  and  C_15
REMARK   10  A    between atoms: C_15  and  O_16
REMARK   11  A    between atoms: O_16  and  C_17
REMARK                            x       y       z     vdW  Elec       q    Type
REMARK                         _______ _______ _______ _____ _____    ______ ____
ROOT
ATOM      1  C   UNL     1     -45.055-298.415  64.581  0.00  0.00    +0.000 C 
ATOM      2  C   UNL     1     -45.188-299.457  65.708  0.00  0.00    +0.000 C 
ATOM      3  N   UNL     1     -45.170-298.867  67.085  0.00  0.00    +0.000 NA
ATOM      4  C   UNL     1     -46.210-297.836  67.116  0.00  0.00    +0.000 C 
ATOM      5  C   UNL     1     -46.085-296.823  65.958  0.00  0.00    +0.000 C 
ATOM      6  O   UNL     1     -46.127-297.458  64.685  0.00  0.00    +0.000 OA
ENDROOT
BRANCH   1  10
ATOM      7  C   UNL     1     -44.852-299.366  61.217  0.00  0.00    +0.000 A 
ATOM      8  N   UNL     1     -45.483-300.473  61.635  0.00  0.00    +0.000 NA
ATOM      9  N   UNL     1     -45.631-300.196  62.936  0.00  0.00    +0.000 N 
ATOM     10  C   UNL     1     -45.119-298.971  63.239  0.00  0.00    +0.000 A 
ATOM     11  N   UNL     1     -44.622-298.423  62.155  0.00  0.00    +0.000 NA
ATOM     12  H   UNL     1     -46.074-300.885  63.547  0.00  0.00    +0.000 HD
BRANCH   7  13
ATOM     13  C   UNL     1     -44.426-299.120  59.825  0.00  0.00    +0.000 C 
ATOM     14  C   UNL     1     -43.829-300.392  59.231  0.00  0.00    +0.000 C 
BRANCH  13  16
ATOM     15  C   UNL     1     -42.249-298.245  58.866  0.00  0.00    +0.000 C 
ATOM     16  C   UNL     1     -43.420-297.946  59.775  0.00  0.00    +0.000 C 
ENDBRANCH  13  16
ENDBRANCH   7  13
ENDBRANCH   1  10
BRANCH   3  17
ATOM     17  C   UNL     1     -43.907-298.341  67.664  0.00  0.00    +0.000 C 
BRANCH  17  18
ATOM     18  C   UNL     1     -42.709-299.278  67.954  0.00  0.00    +0.000 C 
BRANCH  18  19
ATOM     19  O   UNL     1     -43.236-300.547  68.390  0.00  0.00    +0.000 OA
ATOM     20  H   UNL     1     -43.600-300.433  69.285  0.00  0.00    +0.000 HD
ENDBRANCH  18  19
BRANCH  18  21
ATOM     21  C   UNL     1     -41.662-299.621  66.890  0.00  0.00    +0.000 C 
BRANCH  21  22
ATOM     22  O   UNL     1     -41.892-300.736  65.998  0.00  0.00    +0.000 OA
BRANCH  22  23
ATOM     23  C   UNL     1     -41.826-300.431  64.672  0.00  0.00    +0.000 A 
ATOM     24  C   UNL     1     -41.367-299.214  64.220  0.00  0.00    +0.000 A 
ATOM     25  C   UNL     1     -41.145-299.034  62.846  0.00  0.00    +0.000 A 
ATOM     26  C   UNL     1     -41.263-300.105  61.958  0.00  0.00    +0.000 A 
ATOM     27  C   UNL     1     -41.863-301.267  62.408  0.00  0.00    +0.000 A 
ATOM     28  C   UNL     1     -42.316-301.309  63.728  0.00  0.00    +0.000 A 
ATOM     29  F   UNL     1     -43.051-302.331  64.167  0.00  0.00    +0.000 F 
ENDBRANCH  22  23
ENDBRANCH  21  22
ENDBRANCH  18  21
ENDBRANCH  17  18
ENDBRANCH   3  17
TORSDOF 9
ENDMDL
MODEL 4
REMARK VINA RESULT:     0.001      5.943      7.580
REMARK INTER + INTRA:          -2.484
REMARK INTER:                   0.000
REMARK INTRA:                  -2.484
REMARK UNBOUND:                -2.486
REMARK  Name = 
REMARK  11 active torsions:
REMARK  status: ('A' for Active; 'I' for Inactive)
REMARK    1  A    between atoms: C_1  and  C_2
REMARK    2  A    between atoms: C_2  and  C_3
REMARK    3  A    between atoms: C_3  and  C_4
REMARK    4  A    between atoms: C_3  and  C_5
REMARK    5  A    between atoms: C_8  and  C_9
REMARK    6  A    between atoms: N_11  and  C_12
REMARK    7  A    between atoms: C_12  and  C_13
REMARK    8  A    between atoms: C_13  and  O_14
REMARK    9  A    between atoms: C_13  and  C_15
REMARK   10  A    between atoms: C_15  and  O_16
REMARK   11  A    between atoms: O_16  and  C_17
REMARK                            x       y       z     vdW  Elec       q    Type
REMARK                         _______ _______ _______ _____ _____    ______ ____
ROOT
ATOM      1  C   UNL     1     -42.441-300.848  59.344  0.00  0.00    +0.000 C 
ATOM      2  C   UNL     1     -43.126-300.701  57.971  0.00  0.00    +0.000 C 
ATOM      3  N   UNL     1     -42.279-301.150  56.819  0.00  0.00    +0.000 NA
ATOM      4  C   UNL     1     -41.854-302.519  57.118  0.00  0.00    +0.000 C 
ATOM      5  C   UNL     1     -41.204-302.656  58.512  0.00  0.00    +0.000 C 
ATOM      6  O   UNL     1     -42.075-302.226  59.552  0.00  0.00    +0.000 OA
ENDROOT
BRANCH   1  10
ATOM      7  C   UNL     1     -43.976-299.740  62.289  0.00  0.00    +0.000 A 
ATOM      8  N   UNL     1     -45.112-299.898  61.593  0.00  0.00    +0.000 NA
ATOM      9  N   UNL     1     -44.627-300.350  60.431  0.00  0.00    +0.000 N 
ATOM     10  C   UNL     1     -43.271-300.460  60.474  0.00  0.00    +0.000 A 
ATOM     11  N   UNL     1     -42.836-300.081  61.652  0.00  0.00    +0.000 NA
ATOM     12  H   UNL     1     -45.273-300.548  59.663  0.00  0.00    +0.000 HD
BRANCH   7  13
ATOM     13  C   UNL     1     -43.908-299.247  63.680  0.00  0.00    +0.000 C 
ATOM     14  C   UNL     1     -44.876-298.084  63.868  0.00  0.00    +0.000 C 
BRANCH  13  16
ATOM     15  C   UNL     1     -42.407-297.525  64.778  0.00  0.00    +0.000 C 
ATOM     16  C   UNL     1     -42.458-298.838  64.029  0.00  0.00    +0.000 C 
ENDBRANCH  13  16
ENDBRANCH   7  13
ENDBRANCH   1  10
BRANCH   3  17
ATOM     17  C   UNL     1     -41.119-300.336  56.374  0.00  0.00    +0.000 C 
BRANCH  17  18
ATOM     18  C   UNL     1     -41.316-298.915  55.792  0.00  0.00    +0.000 C 
BRANCH  18  19
ATOM     19  O   UNL     1     -42.541-298.915  55.030  0.00  0.00    +0.000 OA
ATOM     20  H   UNL     1     -42.413-298.351  54.248  0.00  0.00    +0.000 HD
ENDBRANCH  18  19
BRANCH  18  21
ATOM     21  C   UNL     1     -41.395-297.670  56.680  0.00  0.00    +0.000 C 
BRANCH  21  22
ATOM     22  O   UNL     1     -42.671-297.263  57.224  0.00  0.00    +0.000 OA
BRANCH  22  23
ATOM     23  C   UNL     1     -42.698-297.127  58.579  0.00  0.00    +0.000 A 
ATOM     24  C   UNL     1     -41.553-297.163  59.344  0.00  0.00    +0.000 A 
ATOM     25  C   UNL     1     -41.629-296.828  60.704  0.00  0.00    +0.000 A 
ATOM     26  C   UNL     1     -42.816-296.340  61.254  0.00  0.00    +0.000 A 
ATOM     27  C   UNL     1     -43.977-296.453  60.512  0.00  0.00    +0.000 A 
ATOM     28  C   UNL     1     -43.901-297.045  59.250  0.00  0.00    +0.000 A 
ATOM     29  F   UNL     1     -45.005-297.335  58.562  0.00  0.00    +0.000 F 
ENDBRANCH  22  23
ENDBRANCH  21  22
ENDBRANCH  18  21
ENDBRANCH  17  18
ENDBRANCH   3  17
TORSDOF 9
ENDMDL
MODEL 5
REMARK VINA RESULT:     0.002      9.086     11.302
REMARK INTER + INTRA:          -2.483
REMARK INTER:                   0.000
REMARK INTRA:                  -2.483
REMARK UNBOUND:                -2.486
REMARK  Name = 
REMARK  11 active torsions:
REMARK  status: ('A' for Active; 'I' for Inactive)
REMARK    1  A    between atoms: C_1  and  C_2
REMARK    2  A    between atoms: C_2  and  C_3
REMARK    3  A    between atoms: C_3  and  C_4
REMARK    4  A    between atoms: C_3  and  C_5
REMARK    5  A    between atoms: C_8  and  C_9
REMARK    6  A    between atoms: N_11  and  C_12
REMARK    7  A    between atoms: C_12  and  C_13
REMARK    8  A    between atoms: C_13  and  O_14
REMARK    9  A    between atoms: C_13  and  C_15
REMARK   10  A    between atoms: C_15  and  O_16
REMARK   11  A    between atoms: O_16  and  C_17
REMARK                            x       y       z     vdW  Elec       q    Type
REMARK                         _______ _______ _______ _____ _____    ______ ____
ROOT
ATOM      1  C   UNL     1     -39.868-293.121  61.150  0.00  0.00    +0.000 C 
ATOM      2  C   UNL     1     -39.631-293.316  59.640  0.00  0.00    +0.000 C 
ATOM      3  N   UNL     1     -40.573-292.537  58.772  0.00  0.00    +0.000 NA
ATOM      4  C   UNL     1     -40.484-291.140  59.203  0.00  0.00    +0.000 C 
ATOM      5  C   UNL     1     -40.686-290.967  60.724  0.00  0.00    +0.000 C 
ATOM      6  O   UNL     1     -39.746-291.724  61.478  0.00  0.00    +0.000 OA
ENDROOT
BRANCH   1  10
ATOM      7  C   UNL     1     -38.031-294.901  63.541  0.00  0.00    +0.000 A 
ATOM      8  N   UNL     1     -37.116-294.995  62.566  0.00  0.00    +0.000 NA
ATOM      9  N   UNL     1     -37.725-294.312  61.589  0.00  0.00    +0.000 N 
ATOM     10  C   UNL     1     -38.931-293.835  62.002  0.00  0.00    +0.000 A 
ATOM     11  N   UNL     1     -39.143-294.195  63.246  0.00  0.00    +0.000 NA
ATOM     12  H   UNL     1     -37.267-294.226  60.679  0.00  0.00    +0.000 HD
BRANCH   7  13
ATOM     13  C   UNL     1     -37.885-295.491  64.887  0.00  0.00    +0.000 C 
ATOM     14  C   UNL     1     -37.292-296.892  64.778  0.00  0.00    +0.000 C 
BRANCH  13  16
ATOM     15  C   UNL     1     -39.495-296.822  66.323  0.00  0.00    +0.000 C 
ATOM     16  C   UNL     1     -39.252-295.510  65.611  0.00  0.00    +0.000 C 
ENDBRANCH  13  16
ENDBRANCH   7  13
ENDBRANCH   1  10
BRANCH   3  17
ATOM     17  C   UNL     1     -41.994-292.947  58.644  0.00  0.00    +0.000 C 
BRANCH  17  18
ATOM     18  C   UNL     1     -42.381-294.301  57.999  0.00  0.00    +0.000 C 
BRANCH  18  19
ATOM     19  O   UNL     1     -41.448-294.564  56.932  0.00  0.00    +0.000 OA
ATOM     20  H   UNL     1     -40.622-294.089  57.127  0.00  0.00    +0.000 HD
ENDBRANCH  18  19
BRANCH  18  21
ATOM     21  C   UNL     1     -42.450-295.601  58.805  0.00  0.00    +0.000 C 
BRANCH  21  22
ATOM     22  O   UNL     1     -41.256-296.398  58.975  0.00  0.00    +0.000 OA
BRANCH  22  23
ATOM     23  C   UNL     1     -40.928-296.669  60.269  0.00  0.00    +0.000 A 
ATOM     24  C   UNL     1     -41.778-296.390  61.316  0.00  0.00    +0.000 A 
ATOM     25  C   UNL     1     -41.463-296.866  62.598  0.00  0.00    +0.000 A 
ATOM     26  C   UNL     1     -40.375-297.718  62.795  0.00  0.00    +0.000 A 
ATOM     27  C   UNL     1     -39.460-297.862  61.768  0.00  0.00    +0.000 A 
ATOM     28  C   UNL     1     -39.675-297.151  60.586  0.00  0.00    +0.000 A 
ATOM     29  F   UNL     1     -38.746-297.115  59.631  0.00  0.00    +0.000 F 
ENDBRANCH  22  23
ENDBRANCH  21  22
ENDBRANCH  18  21
ENDBRANCH  17  18
ENDBRANCH   3  17
TORSDOF 9
ENDMDL
MODEL 6
REMARK VINA RESULT:     0.002      4.089      7.329
REMARK INTER + INTRA:          -2.483
REMARK INTER:                   0.000
REMARK INTRA:                  -2.483
REMARK UNBOUND:                -2.486
REMARK  Name = 
REMARK  11 active torsions:
REMARK  status: ('A' for Active; 'I' for Inactive)
REMARK    1  A    between atoms: C_1  and  C_2
REMARK    2  A    between atoms: C_2  and  C_3
REMARK    3  A    between atoms: C_3  and  C_4
REMARK    4  A    between atoms: C_3  and  C_5
REMARK    5  A    between atoms: C_8  and  C_9
REMARK    6  A    between atoms: N_11  and  C_12
REMARK    7  A    between atoms: C_12  and  C_13
REMARK    8  A    between atoms: C_13  and  O_14
REMARK    9  A    between atoms: C_13  and  C_15
REMARK   10  A    between atoms: C_15  and  O_16
REMARK   11  A    between atoms: O_16  and  C_17
REMARK                            x       y       z     vdW  Elec       q    Type
REMARK                         _______ _______ _______ _____ _____    ______ ____
ROOT
ATOM      1  C   UNL     1     -47.173-298.188  56.200  0.00  0.00    +0.000 C 
ATOM      2  C   UNL     1     -48.187-297.616  57.210  0.00  0.00    +0.000 C 
ATOM      3  N   UNL     1     -47.733-296.355  57.879  0.00  0.00    +0.000 NA
ATOM      4  C   UNL     1     -47.377-295.417  56.812  0.00  0.00    +0.000 C 
ATOM      5  C   UNL     1     -46.390-296.018  55.789  0.00  0.00    +0.000 C 
ATOM      6  O   UNL     1     -46.900-297.202  55.186  0.00  0.00    +0.000 OA
ENDROOT
BRANCH   1  10
ATOM      7  C   UNL     1     -47.736-301.226  54.552  0.00  0.00    +0.000 A 
ATOM      8  N   UNL     1     -49.028-300.960  54.797  0.00  0.00    +0.000 NA
ATOM      9  N   UNL     1     -48.923-299.781  55.421  0.00  0.00    +0.000 N 
ATOM     10  C   UNL     1     -47.624-299.386  55.509  0.00  0.00    +0.000 A 
ATOM     11  N   UNL     1     -46.851-300.291  54.957  0.00  0.00    +0.000 NA
ATOM     12  H   UNL     1     -49.769-299.319  55.762  0.00  0.00    +0.000 HD
BRANCH   7  13
ATOM     13  C   UNL     1     -47.246-302.438  53.867  0.00  0.00    +0.000 C 
ATOM     14  C   UNL     1     -48.007-303.662  54.366  0.00  0.00    +0.000 C 
BRANCH  13  16
ATOM     15  C   UNL     1     -45.342-304.019  54.411  0.00  0.00    +0.000 C 
ATOM     16  C   UNL     1     -45.722-302.593  54.084  0.00  0.00    +0.000 C 
ENDBRANCH  13  16
ENDBRANCH   7  13
ENDBRANCH   1  10
BRANCH   3  17
ATOM     17  C   UNL     1     -46.664-296.392  58.910  0.00  0.00    +0.000 C 
BRANCH  17  18
ATOM     18  C   UNL     1     -46.874-297.133  60.253  0.00  0.00    +0.000 C 
BRANCH  18  19
ATOM     19  O   UNL     1     -48.254-296.966  60.639  0.00  0.00    +0.000 OA
ATOM     20  H   UNL     1     -48.749-297.749  60.342  0.00  0.00    +0.000 HD
ENDBRANCH  18  19
BRANCH  18  21
ATOM     21  C   UNL     1     -46.589-298.629  60.416  0.00  0.00    +0.000 C 
BRANCH  21  22
ATOM     22  O   UNL     1     -47.622-299.589  60.103  0.00  0.00    +0.000 OA
BRANCH  22  23
ATOM     23  C   UNL     1     -47.265-300.538  59.194  0.00  0.00    +0.000 A 
ATOM     24  C   UNL     1     -45.964-300.698  58.770  0.00  0.00    +0.000 A 
ATOM     25  C   UNL     1     -45.633-301.810  57.982  0.00  0.00    +0.000 A 
ATOM     26  C   UNL     1     -46.572-302.813  57.732  0.00  0.00    +0.000 A 
ATOM     27  C   UNL     1     -47.897-302.561  58.038  0.00  0.00    +0.000 A 
ATOM     28  C   UNL     1     -48.226-301.319  58.584  0.00  0.00    +0.000 A 
ATOM     29  F   UNL     1     -49.498-300.955  58.741  0.00  0.00    +0.000 F 
ENDBRANCH  22  23
ENDBRANCH  21  22
ENDBRANCH  18  21
ENDBRANCH  17  18
ENDBRANCH   3  17
TORSDOF 9
ENDMDL
MODEL 7
REMARK VINA RESULT:     0.002      8.619     11.273
REMARK INTER + INTRA:          -2.483
REMARK INTER:                   0.000
REMARK INTRA:                  -2.483
REMARK UNBOUND:                -2.486
REMARK  Name = 
REMARK  11 active torsions:
REMARK  status: ('A' for Active; 'I' for Inactive)
REMARK    1  A    between atoms: C_1  and  C_2
REMARK    2  A    between atoms: C_2  and  C_3
REMARK    3  A    between atoms: C_3  and  C_4
REMARK    4  A    between atoms: C_3  and  C_5
REMARK    5  A    between atoms: C_8  and  C_9
REMARK    6  A    between atoms: N_11  and  C_12
REMARK    7  A    between atoms: C_12  and  C_13
REMARK    8  A    between atoms: C_13  and  O_14
REMARK    9  A    between atoms: C_13  and  C_15
REMARK   10  A    between atoms: C_15  and  O_16
REMARK   11  A    between atoms: O_16  and  C_17
REMARK                            x       y       z     vdW  Elec       q    Type
REMARK                         _______ _______ _______ _____ _____    ______ ____
ROOT
ATOM      1  C   UNL     1     -40.662-292.005  59.822  0.00  0.00    +0.000 C 
ATOM      2  C   UNL     1     -40.961-292.526  58.403  0.00  0.00    +0.000 C 
ATOM      3  N   UNL     1     -42.145-291.876  57.755  0.00  0.00    +0.000 NA
ATOM      4  C   UNL     1     -41.916-290.431  57.811  0.00  0.00    +0.000 C 
ATOM      5  C   UNL     1     -41.581-289.932  59.233  0.00  0.00    +0.000 C 
ATOM      6  O   UNL     1     -40.437-290.583  59.773  0.00  0.00    +0.000 OA
ENDROOT
BRANCH   1  10
ATOM      7  C   UNL     1     -38.108-293.381  61.782  0.00  0.00    +0.000 A 
ATOM      8  N   UNL     1     -37.586-293.743  60.602  0.00  0.00    +0.000 NA
ATOM      9  N   UNL     1     -38.496-293.234  59.763  0.00  0.00    +0.000 N 
ATOM     10  C   UNL     1     -39.486-292.594  60.443  0.00  0.00    +0.000 A 
ATOM     11  N   UNL     1     -39.255-292.672  61.732  0.00  0.00    +0.000 NA
ATOM     12  H   UNL     1     -38.381-293.373  58.757  0.00  0.00    +0.000 HD
BRANCH   7  13
ATOM     13  C   UNL     1     -37.505-293.689  63.095  0.00  0.00    +0.000 C 
ATOM     14  C   UNL     1     -36.985-295.123  63.105  0.00  0.00    +0.000 C 
BRANCH  13  16
ATOM     15  C   UNL     1     -38.520-294.570  65.243  0.00  0.00    +0.000 C 
ATOM     16  C   UNL     1     -38.537-293.455  64.223  0.00  0.00    +0.000 C 
ENDBRANCH  13  16
ENDBRANCH   7  13
ENDBRANCH   1  10
BRANCH   3  17
ATOM     17  C   UNL     1     -43.523-292.197  58.207  0.00  0.00    +0.000 C 
BRANCH  17  18
ATOM     18  C   UNL     1     -44.106-293.623  58.046  0.00  0.00    +0.000 C 
BRANCH  18  19
ATOM     19  O   UNL     1     -43.598-294.171  56.812  0.00  0.00    +0.000 OA
ATOM     20  H   UNL     1     -42.756-293.728  56.607  0.00  0.00    +0.000 HD
ENDBRANCH  18  19
BRANCH  18  21
ATOM     21  C   UNL     1     -43.890-294.719  59.092  0.00  0.00    +0.000 C 
BRANCH  21  22
ATOM     22  O   UNL     1     -42.709-295.550  59.021  0.00  0.00    +0.000 OA
BRANCH  22  23
ATOM     23  C   UNL     1     -41.954-295.570  60.154  0.00  0.00    +0.000 A 
ATOM     24  C   UNL     1     -42.390-295.018  61.338  0.00  0.00    +0.000 A 
ATOM     25  C   UNL     1     -41.651-295.240  62.510  0.00  0.00    +0.000 A 
ATOM     26  C   UNL     1     -40.560-296.111  62.511  0.00  0.00    +0.000 A 
ATOM     27  C   UNL     1     -40.056-296.531  61.294  0.00  0.00    +0.000 A 
ATOM     28  C   UNL     1     -40.667-296.067  60.128  0.00  0.00    +0.000 A 
ATOM     29  F   UNL     1     -40.126-296.298  58.932  0.00  0.00    +0.000 F 
ENDBRANCH  22  23
ENDBRANCH  21  22
ENDBRANCH  18  21
ENDBRANCH  17  18
ENDBRANCH   3  17
TORSDOF 9
ENDMDL
MODEL 8
REMARK VINA RESULT:     0.002      3.829      6.519
REMARK INTER + INTRA:          -2.483
REMARK INTER:                   0.000
REMARK INTRA:                  -2.483
REMARK UNBOUND:                -2.486
REMARK  Name = 
REMARK  11 active torsions:
REMARK  status: ('A' for Active; 'I' for Inactive)
REMARK    1  A    between atoms: C_1  and  C_2
REMARK    2  A    between atoms: C_2  and  C_3
REMARK    3  A    between atoms: C_3  and  C_4
REMARK    4  A    between atoms: C_3  and  C_5
REMARK    5  A    between atoms: C_8  and  C_9
REMARK    6  A    between atoms: N_11  and  C_12
REMARK    7  A    between atoms: C_12  and  C_13
REMARK    8  A    between atoms: C_13  and  O_14
REMARK    9  A    between atoms: C_13  and  C_15
REMARK   10  A    between atoms: C_15  and  O_16
REMARK   11  A    between atoms: O_16  and  C_17
REMARK                            x       y       z     vdW  Elec       q    Type
REMARK                         _______ _______ _______ _____ _____    ______ ____
ROOT
ATOM      1  C   UNL     1     -46.354-296.926  57.979  0.00  0.00    +0.000 C 
ATOM      2  C   UNL     1     -47.863-296.882  57.673  0.00  0.00    +0.000 C 
ATOM      3  N   UNL     1     -48.307-295.627  56.984  0.00  0.00    +0.000 NA
ATOM      4  C   UNL     1     -47.465-295.479  55.795  0.00  0.00    +0.000 C 
ATOM      5  C   UNL     1     -45.957-295.564  56.114  0.00  0.00    +0.000 C 
ATOM      6  O   UNL     1     -45.612-296.789  56.751  0.00  0.00    +0.000 OA
ENDROOT
BRANCH   1  10
ATOM      7  C   UNL     1     -44.916-299.579  59.754  0.00  0.00    +0.000 A 
ATOM      8  N   UNL     1     -45.979-300.268  59.313  0.00  0.00    +0.000 NA
ATOM      9  N   UNL     1     -46.598-299.329  58.589  0.00  0.00    +0.000 N 
ATOM     10  C   UNL     1     -45.903-298.158  58.605  0.00  0.00    +0.000 A 
ATOM     11  N   UNL     1     -44.824-298.298  59.339  0.00  0.00    +0.000 NA
ATOM     12  H   UNL     1     -47.483-299.554  58.129  0.00  0.00    +0.000 HD
BRANCH   7  13
ATOM     13  C   UNL     1     -43.862-300.133  60.627  0.00  0.00    +0.000 C 
ATOM     14  C   UNL     1     -44.489-300.997  61.716  0.00  0.00    +0.000 C 
BRANCH  13  16
ATOM     15  C   UNL     1     -42.741-299.206  62.703  0.00  0.00    +0.000 C 
ATOM     16  C   UNL     1     -43.014-298.989  61.231  0.00  0.00    +0.000 C 
ENDBRANCH  13  16
ENDBRANCH   7  13
ENDBRANCH   1  10
BRANCH   3  17
ATOM     17  C   UNL     1     -48.378-294.343  57.727  0.00  0.00    +0.000 C 
BRANCH  17  18
ATOM     18  C   UNL     1     -49.369-294.153  58.902  0.00  0.00    +0.000 C 
BRANCH  18  19
ATOM     19  O   UNL     1     -50.574-294.880  58.585  0.00  0.00    +0.000 OA
ATOM     20  H   UNL     1     -50.445-295.809  58.843  0.00  0.00    +0.000 HD
ENDBRANCH  18  19
BRANCH  18  21
ATOM     21  C   UNL     1     -49.023-294.554  60.339  0.00  0.00    +0.000 C 
BRANCH  21  22
ATOM     22  O   UNL     1     -49.272-295.908  60.780  0.00  0.00    +0.000 OA
BRANCH  22  23
ATOM     23  C   UNL     1     -48.188-296.551  61.294  0.00  0.00    +0.000 A 
ATOM     24  C   UNL     1     -47.007-295.898  61.568  0.00  0.00    +0.000 A 
ATOM     25  C   UNL     1     -45.998-296.574  62.270  0.00  0.00    +0.000 A 
ATOM     26  C   UNL     1     -46.225-297.846  62.799  0.00  0.00    +0.000 A 
ATOM     27  C   UNL     1     -47.352-298.534  62.388  0.00  0.00    +0.000 A 
ATOM     28  C   UNL     1     -48.204-297.920  61.469  0.00  0.00    +0.000 A 
ATOM     29  F   UNL     1     -49.208-298.595  60.909  0.00  0.00    +0.000 F 
ENDBRANCH  22  23
ENDBRANCH  21  22
ENDBRANCH  18  21
ENDBRANCH  17  18
ENDBRANCH   3  17
TORSDOF 9
ENDMDL
MODEL 9
REMARK VINA RESULT:     0.002      4.371      7.076
REMARK INTER + INTRA:          -2.483
REMARK INTER:                   0.000
REMARK INTRA:                  -2.483
REMARK UNBOUND:                -2.486
REMARK  Name = 
REMARK  11 active torsions:
REMARK  status: ('A' for Active; 'I' for Inactive)
REMARK    1  A    between atoms: C_1  and  C_2
REMARK    2  A    between atoms: C_2  and  C_3
REMARK    3  A    between atoms: C_3  and  C_4
REMARK    4  A    between atoms: C_3  and  C_5
REMARK    5  A    between atoms: C_8  and  C_9
REMARK    6  A    between atoms: N_11  and  C_12
REMARK    7  A    between atoms: C_12  and  C_13
REMARK    8  A    between atoms: C_13  and  O_14
REMARK    9  A    between atoms: C_13  and  C_15
REMARK   10  A    between atoms: C_15  and  O_16
REMARK   11  A    between atoms: O_16  and  C_17
REMARK                            x       y       z     vdW  Elec       q    Type
REMARK                         _______ _______ _______ _____ _____    ______ ____
ROOT
ATOM      1  C   UNL     1     -43.746-302.084  59.980  0.00  0.00    +0.000 C 
ATOM      2  C   UNL     1     -44.964-302.476  59.121  0.00  0.00    +0.000 C 
ATOM      3  N   UNL     1     -45.180-301.588  57.933  0.00  0.00    +0.000 NA
ATOM      4  C   UNL     1     -43.920-301.568  57.187  0.00  0.00    +0.000 C 
ATOM      5  C   UNL     1     -42.705-301.211  58.071  0.00  0.00    +0.000 C 
ATOM      6  O   UNL     1     -42.558-302.108  59.166  0.00  0.00    +0.000 OA
ENDROOT
BRANCH   1  10
ATOM      7  C   UNL     1     -42.984-303.763  62.957  0.00  0.00    +0.000 A 
ATOM      8  N   UNL     1     -43.672-304.771  62.402  0.00  0.00    +0.000 NA
ATOM      9  N   UNL     1     -43.998-304.228  61.223  0.00  0.00    +0.000 N 
ATOM     10  C   UNL     1     -43.499-302.968  61.109  0.00  0.00    +0.000 A 
ATOM     11  N   UNL     1     -42.844-302.653  62.201  0.00  0.00    +0.000 NA
ATOM     12  H   UNL     1     -44.565-304.767  60.564  0.00  0.00    +0.000 HD
BRANCH   7  13
ATOM     13  C   UNL     1     -42.371-303.805  64.299  0.00  0.00    +0.000 C 
ATOM     14  C   UNL     1     -43.326-304.471  65.286  0.00  0.00    +0.000 C 
BRANCH  13  16
ATOM     15  C   UNL     1     -42.373-302.126  66.198  0.00  0.00    +0.000 C 
ATOM     16  C   UNL     1     -41.991-302.377  64.756  0.00  0.00    +0.000 C 
ENDBRANCH  13  16
ENDBRANCH   7  13
ENDBRANCH   1  10
BRANCH   3  17
ATOM     17  C   UNL     1     -45.697-300.206  58.109  0.00  0.00    +0.000 C 
BRANCH  17  18
ATOM     18  C   UNL     1     -47.116-299.948  58.672  0.00  0.00    +0.000 C 
BRANCH  18  19
ATOM     19  O   UNL     1     -47.981-300.993  58.183  0.00  0.00    +0.000 OA
ATOM     20  H   UNL     1     -48.902-300.726  58.347  0.00  0.00    +0.000 HD
ENDBRANCH  18  19
BRANCH  18  21
ATOM     21  C   UNL     1     -47.397-299.863  60.174  0.00  0.00    +0.000 C 
BRANCH  21  22
ATOM     22  O   UNL     1     -47.683-301.070  60.916  0.00  0.00    +0.000 OA
BRANCH  22  23
ATOM     23  C   UNL     1     -46.877-301.284  61.993  0.00  0.00    +0.000 A 
ATOM     24  C   UNL     1     -46.007-300.325  62.462  0.00  0.00    +0.000 A 
ATOM     25  C   UNL     1     -45.349-300.537  63.683  0.00  0.00    +0.000 A 
ATOM     26  C   UNL     1     -45.661-301.640  64.480  0.00  0.00    +0.000 A 
ATOM     27  C   UNL     1     -46.419-302.656  63.926  0.00  0.00    +0.000 A 
ATOM     28  C   UNL     1     -46.836-302.522  62.600  0.00  0.00    +0.000 A 
ATOM     29  F   UNL     1     -47.420-303.536  61.961  0.00  0.00    +0.000 F 
ENDBRANCH  22  23
ENDBRANCH  21  22
ENDBRANCH  18  21
ENDBRANCH  17  18
ENDBRANCH   3  17
TORSDOF 9
ENDMDL
MODEL 10
REMARK VINA RESULT:     0.002      3.017      5.383
REMARK INTER + INTRA:          -2.482
REMARK INTER:                   0.000
REMARK INTRA:                  -2.482
REMARK UNBOUND:                -2.486
REMARK  Name = 
REMARK  11 active torsions:
REMARK  status: ('A' for Active; 'I' for Inactive)
REMARK    1  A    between atoms: C_1  and  C_2
REMARK    2  A    between atoms: C_2  and  C_3
REMARK    3  A    between atoms: C_3  and  C_4
REMARK    4  A    between atoms: C_3  and  C_5
REMARK    5  A    between atoms: C_8  and  C_9
REMARK    6  A    between atoms: N_11  and  C_12
REMARK    7  A    between atoms: C_12  and  C_13
REMARK    8  A    between atoms: C_13  and  O_14
REMARK    9  A    between atoms: C_13  and  C_15
REMARK   10  A    between atoms: C_15  and  O_16
REMARK   11  A    between atoms: O_16  and  C_17
REMARK                            x       y       z     vdW  Elec       q    Type
REMARK                         _______ _______ _______ _____ _____    ______ ____
ROOT
ATOM      1  C   UNL     1     -46.393-300.514  62.378  0.00  0.00    +0.000 C 
ATOM      2  C   UNL     1     -45.546-299.901  61.245  0.00  0.00    +0.000 C 
ATOM      3  N   UNL     1     -44.706-298.738  61.677  0.00  0.00    +0.000 NA
ATOM      4  C   UNL     1     -43.911-299.195  62.821  0.00  0.00    +0.000 C 
ATOM      5  C   UNL     1     -44.771-299.840  63.928  0.00  0.00    +0.000 C 
ATOM      6  O   UNL     1     -45.526-300.945  63.444  0.00  0.00    +0.000 OA
ENDROOT
BRANCH   1  10
ATOM      7  C   UNL     1     -48.652-303.121  61.775  0.00  0.00    +0.000 A 
ATOM      8  N   UNL     1     -47.867-303.371  60.717  0.00  0.00    +0.000 NA
ATOM      9  N   UNL     1     -46.937-302.421  60.869  0.00  0.00    +0.000 N 
ATOM     10  C   UNL     1     -47.177-301.673  61.981  0.00  0.00    +0.000 A 
ATOM     11  N   UNL     1     -48.263-302.106  62.576  0.00  0.00    +0.000 NA
ATOM     12  H   UNL     1     -46.188-302.339  60.179  0.00  0.00    +0.000 HD
BRANCH   7  13
ATOM     13  C   UNL     1     -49.870-303.883  62.114  0.00  0.00    +0.000 C 
ATOM     14  C   UNL     1     -50.673-304.169  60.849  0.00  0.00    +0.000 C 
BRANCH  13  16
ATOM     15  C   UNL     1     -52.184-303.126  62.816  0.00  0.00    +0.000 C 
ATOM     16  C   UNL     1     -50.711-303.109  63.156  0.00  0.00    +0.000 C 
ENDBRANCH  13  16
ENDBRANCH   7  13
ENDBRANCH   1  10
BRANCH   3  17
ATOM     17  C   UNL     1     -45.331-297.425  61.977  0.00  0.00    +0.000 C 
BRANCH  17  18
ATOM     18  C   UNL     1     -46.047-296.609  60.872  0.00  0.00    +0.000 C 
BRANCH  18  19
ATOM     19  O   UNL     1     -45.326-296.810  59.639  0.00  0.00    +0.000 OA
ATOM     20  H   UNL     1     -44.678-296.091  59.546  0.00  0.00    +0.000 HD
ENDBRANCH  18  19
BRANCH  18  21
ATOM     21  C   UNL     1     -47.520-296.828  60.517  0.00  0.00    +0.000 C 
BRANCH  21  22
ATOM     22  O   UNL     1     -47.877-297.837  59.545  0.00  0.00    +0.000 OA
BRANCH  22  23
ATOM     23  C   UNL     1     -48.776-298.761  59.983  0.00  0.00    +0.000 A 
ATOM     24  C   UNL     1     -49.449-298.624  61.177  0.00  0.00    +0.000 A 
ATOM     25  C   UNL     1     -50.496-299.508  61.478  0.00  0.00    +0.000 A 
ATOM     26  C   UNL     1     -50.941-300.435  60.534  0.00  0.00    +0.000 A 
ATOM     27  C   UNL     1     -50.162-300.653  59.412  0.00  0.00    +0.000 A 
ATOM     28  C   UNL     1     -48.974-299.932  59.281  0.00  0.00    +0.000 A 
ATOM     29  F   UNL     1     -48.102-300.219  58.314  0.00  0.00    +0.000 F 
ENDBRANCH  22  23
ENDBRANCH  21  22
ENDBRANCH  18  21
ENDBRANCH  17  18
ENDBRANCH   3  17
TORSDOF 9
ENDMDL
