MODEL 1
REMARK VINA RESULT:    -8.264      0.000      0.000
REMARK INTER + INTRA:         -13.153
REMARK INTER:                 -12.129
REMARK INTRA:                  -1.024
REMARK UNBOUND:                -1.024
REMARK  Name = 
REMARK  10 active torsions:
REMARK  status: ('A' for Active; 'I' for Inactive)
REMARK    1  A    between atoms: C_1  and  C_2
REMARK    2  A    between atoms: C_2  and  C_3
REMARK    3  A    between atoms: C_3  and  C_4
REMARK    4  A    between atoms: C_9  and  N_10
REMARK    5  A    between atoms: N_10  and  C_11
REMARK    6  A    between atoms: N_10  and  S_20
REMARK    7  A    between atoms: C_11  and  C_12
REMARK    8  A    between atoms: N_14  and  C_15
REMARK    9  A    between atoms: C_15  and  C_16
REMARK   10  A    between atoms: S_20  and  C_21
REMARK                            x       y       z     vdW  Elec       q    Type
REMARK                         _______ _______ _______ _____ _____    ______ ____
ROOT
ATOM      1  N   UNL     1     -42.810-157.567 307.925  0.00  0.00    +0.000 N 
ENDROOT
BRANCH   1   7
ATOM      2  C   UNL     1     -41.261-159.210 309.164  0.00  0.00    +0.000 A 
ATOM      3  C   UNL     1     -40.521-159.563 310.320  0.00  0.00    +0.000 A 
ATOM      4  C   UNL     1     -40.931-159.158 311.581  0.00  0.00    +0.000 A 
ATOM      5  C   UNL     1     -42.059-158.368 311.679  0.00  0.00    +0.000 A 
ATOM      6  C   UNL     1     -42.731-157.960 310.505  0.00  0.00    +0.000 A 
ATOM      7  C   UNL     1     -42.295-158.290 309.182  0.00  0.00    +0.000 A 
BRANCH   2   8
ATOM      8  C   UNL     1     -41.045-159.941 307.906  0.00  0.00    +0.000 C 
BRANCH   8  10
ATOM      9  C   UNL     1     -39.334-162.108 307.849  0.00  0.00    +0.000 C 
ATOM     10  C   UNL     1     -40.745-161.452 308.112  0.00  0.00    +0.000 C 
ENDBRANCH   8  10
ENDBRANCH   2   8
ENDBRANCH   1   7
BRANCH   1  11
ATOM     11  S   UNL     1     -41.938-156.566 306.511  0.00  0.00    +0.000 S 
ATOM     12  C   UNL     1     -42.078-154.829 306.881  0.00  0.00    +0.000 C 
ATOM     13  O   UNL     1     -40.486-156.749 306.404  0.00  0.00    +0.000 OA
ATOM     14  O   UNL     1     -42.670-156.782 305.305  0.00  0.00    +0.000 OA
ENDBRANCH   1  11
BRANCH   1  15
ATOM     15  C   UNL     1     -44.169-158.041 307.443  0.00  0.00    +0.000 C 
BRANCH  15  16
ATOM     16  C   UNL     1     -45.057-156.826 307.356  0.00  0.00    +0.000 C 
ATOM     17  O   UNL     1     -45.055-155.955 308.222  0.00  0.00    +0.000 OA
ATOM     18  N   UNL     1     -45.862-156.702 306.246  0.00  0.00    +0.000 N 
ATOM     19  H   UNL     1     -46.524-155.942 306.332  0.00  0.00    +0.000 HD
BRANCH  18  20
ATOM     20  C   UNL     1     -45.861-157.502 305.007  0.00  0.00    +0.000 C 
BRANCH  20  21
ATOM     21  C   UNL     1     -46.915-158.597 304.896  0.00  0.00    +0.000 C 
ATOM     22  F   UNL     1     -46.735-159.327 303.776  0.00  0.00    +0.000 F 
ATOM     23  F   UNL     1     -46.889-159.432 305.956  0.00  0.00    +0.000 F 
ATOM     24  F   UNL     1     -48.151-158.096 304.851  0.00  0.00    +0.000 F 
ENDBRANCH  20  21
ENDBRANCH  18  20
ENDBRANCH  15  16
ENDBRANCH   1  15
TORSDOF 8
ENDMDL
MODEL 2
REMARK VINA RESULT:    -7.867      1.013      2.647
REMARK INTER + INTRA:         -12.571
REMARK INTER:                 -11.880
REMARK INTRA:                  -0.691
REMARK UNBOUND:                -1.024
REMARK  Name = 
REMARK  10 active torsions:
REMARK  status: ('A' for Active; 'I' for Inactive)
REMARK    1  A    between atoms: C_1  and  C_2
REMARK    2  A    between atoms: C_2  and  C_3
REMARK    3  A    between atoms: C_3  and  C_4
REMARK    4  A    between atoms: C_9  and  N_10
REMARK    5  A    between atoms: N_10  and  C_11
REMARK    6  A    between atoms: N_10  and  S_20
REMARK    7  A    between atoms: C_11  and  C_12
REMARK    8  A    between atoms: N_14  and  C_15
REMARK    9  A    between atoms: C_15  and  C_16
REMARK   10  A    between atoms: S_20  and  C_21
REMARK                            x       y       z     vdW  Elec       q    Type
REMARK                         _______ _______ _______ _____ _____    ______ ____
ROOT
ATOM      1  N   UNL     1     -42.596-157.729 307.525  0.00  0.00    +0.000 N 
ENDROOT
BRANCH   1   7
ATOM      2  C   UNL     1     -41.902-159.092 309.597  0.00  0.00    +0.000 A 
ATOM      3  C   UNL     1     -41.429-160.299 310.168  0.00  0.00    +0.000 A 
ATOM      4  C   UNL     1     -40.594-161.147 309.457  0.00  0.00    +0.000 A 
ATOM      5  C   UNL     1     -40.264-160.803 308.161  0.00  0.00    +0.000 A 
ATOM      6  C   UNL     1     -40.814-159.636 307.586  0.00  0.00    +0.000 A 
ATOM      7  C   UNL     1     -41.741-158.777 308.258  0.00  0.00    +0.000 A 
BRANCH   2   8
ATOM      8  C   UNL     1     -42.456-158.041 310.463  0.00  0.00    +0.000 C 
BRANCH   8  10
ATOM      9  C   UNL     1     -43.154-159.000 312.958  0.00  0.00    +0.000 C 
ATOM     10  C   UNL     1     -42.164-158.264 311.974  0.00  0.00    +0.000 C 
ENDBRANCH   8  10
ENDBRANCH   2   8
ENDBRANCH   1   7
BRANCH   1  11
ATOM     11  S   UNL     1     -42.168-156.188 306.428  0.00  0.00    +0.000 S 
ATOM     12  C   UNL     1     -40.576-156.457 305.676  0.00  0.00    +0.000 C 
ATOM     13  O   UNL     1     -43.035-155.976 305.263  0.00  0.00    +0.000 OA
ATOM     14  O   UNL     1     -42.021-155.061 307.292  0.00  0.00    +0.000 OA
ENDBRANCH   1  11
BRANCH   1  15
ATOM     15  C   UNL     1     -44.019-158.172 307.237  0.00  0.00    +0.000 C 
BRANCH  15  16
ATOM     16  C   UNL     1     -44.907-156.971 307.437  0.00  0.00    +0.000 C 
ATOM     17  O   UNL     1     -44.815-156.250 308.428  0.00  0.00    +0.000 OA
ATOM     18  N   UNL     1     -45.821-156.681 306.449  0.00  0.00    +0.000 N 
ATOM     19  H   UNL     1     -46.468-155.953 306.723  0.00  0.00    +0.000 HD
BRANCH  18  20
ATOM     20  C   UNL     1     -45.949-157.271 305.104  0.00  0.00    +0.000 C 
BRANCH  20  21
ATOM     21  C   UNL     1     -46.907-158.447 304.958  0.00  0.00    +0.000 C 
ATOM     22  F   UNL     1     -46.647-159.143 303.832  0.00  0.00    +0.000 F 
ATOM     23  F   UNL     1     -46.832-159.292 306.007  0.00  0.00    +0.000 F 
ATOM     24  F   UNL     1     -48.179-158.048 304.895  0.00  0.00    +0.000 F 
ENDBRANCH  20  21
ENDBRANCH  18  20
ENDBRANCH  15  16
ENDBRANCH   1  15
TORSDOF 8
ENDMDL
MODEL 3
REMARK VINA RESULT:    -7.749      5.439      7.513
REMARK INTER + INTRA:         -12.397
REMARK INTER:                 -11.917
REMARK INTRA:                  -0.481
REMARK UNBOUND:                -1.024
REMARK  Name = 
REMARK  10 active torsions:
REMARK  status: ('A' for Active; 'I' for Inactive)
REMARK    1  A    between atoms: C_1  and  C_2
REMARK    2  A    between atoms: C_2  and  C_3
REMARK    3  A    between atoms: C_3  and  C_4
REMARK    4  A    between atoms: C_9  and  N_10
REMARK    5  A    between atoms: N_10  and  C_11
REMARK    6  A    between atoms: N_10  and  S_20
REMARK    7  A    between atoms: C_11  and  C_12
REMARK    8  A    between atoms: N_14  and  C_15
REMARK    9  A    between atoms: C_15  and  C_16
REMARK   10  A    between atoms: S_20  and  C_21
REMARK                            x       y       z     vdW  Elec       q    Type
REMARK                         _______ _______ _______ _____ _____    ______ ____
ROOT
ATOM      1  N   UNL     1     -40.512-162.152 309.765  0.00  0.00    +0.000 N 
ENDROOT
BRANCH   1   7
ATOM      2  C   UNL     1     -42.102-160.548 311.003  0.00  0.00    +0.000 A 
ATOM      3  C   UNL     1     -42.816-160.190 312.173  0.00  0.00    +0.000 A 
ATOM      4  C   UNL     1     -42.338-160.523 313.431  0.00  0.00    +0.000 A 
ATOM      5  C   UNL     1     -41.165-161.247 313.513  0.00  0.00    +0.000 A 
ATOM      6  C   UNL     1     -40.516-161.664 312.329  0.00  0.00    +0.000 A 
ATOM      7  C   UNL     1     -41.018-161.409 311.014  0.00  0.00    +0.000 A 
BRANCH   2   8
ATOM      8  C   UNL     1     -42.405-159.879 309.728  0.00  0.00    +0.000 C 
BRANCH   8  10
ATOM      9  C   UNL     1     -42.853-157.375 308.650  0.00  0.00    +0.000 C 
ATOM     10  C   UNL     1     -42.414-158.328 309.830  0.00  0.00    +0.000 C 
ENDBRANCH   8  10
ENDBRANCH   2   8
ENDBRANCH   1   7
BRANCH   1  11
ATOM     11  S   UNL     1     -40.070-161.586 307.963  0.00  0.00    +0.000 S 
ATOM     12  C   UNL     1     -38.480-162.264 307.534  0.00  0.00    +0.000 C 
ATOM     13  O   UNL     1     -40.935-162.113 306.901  0.00  0.00    +0.000 OA
ATOM     14  O   UNL     1     -39.915-160.167 307.975  0.00  0.00    +0.000 OA
ENDBRANCH   1  11
BRANCH   1  15
ATOM     15  C   UNL     1     -39.833-163.477 310.058  0.00  0.00    +0.000 C 
BRANCH  15  16
ATOM     16  C   UNL     1     -40.746-164.565 309.554  0.00  0.00    +0.000 C 
ATOM     17  O   UNL     1     -41.935-164.611 309.860  0.00  0.00    +0.000 OA
ATOM     18  N   UNL     1     -40.211-165.506 308.704  0.00  0.00    +0.000 N 
ATOM     19  H   UNL     1     -40.845-166.274 308.528  0.00  0.00    +0.000 HD
BRANCH  18  20
ATOM     20  C   UNL     1     -38.891-165.515 308.046  0.00  0.00    +0.000 C 
BRANCH  20  21
ATOM     21  C   UNL     1     -38.824-166.121 306.649  0.00  0.00    +0.000 C 
ATOM     22  F   UNL     1     -39.618-167.207 306.557  0.00  0.00    +0.000 F 
ATOM     23  F   UNL     1     -39.199-165.239 305.699  0.00  0.00    +0.000 F 
ATOM     24  F   UNL     1     -37.586-166.503 306.330  0.00  0.00    +0.000 F 
ENDBRANCH  20  21
ENDBRANCH  18  20
ENDBRANCH  15  16
ENDBRANCH   1  15
TORSDOF 8
ENDMDL
MODEL 4
REMARK VINA RESULT:    -7.555      2.492      2.706
REMARK INTER + INTRA:         -12.112
REMARK INTER:                 -11.403
REMARK INTRA:                  -0.709
REMARK UNBOUND:                -1.024
REMARK  Name = 
REMARK  10 active torsions:
REMARK  status: ('A' for Active; 'I' for Inactive)
REMARK    1  A    between atoms: C_1  and  C_2
REMARK    2  A    between atoms: C_2  and  C_3
REMARK    3  A    between atoms: C_3  and  C_4
REMARK    4  A    between atoms: C_9  and  N_10
REMARK    5  A    between atoms: N_10  and  C_11
REMARK    6  A    between atoms: N_10  and  S_20
REMARK    7  A    between atoms: C_11  and  C_12
REMARK    8  A    between atoms: N_14  and  C_15
REMARK    9  A    between atoms: C_15  and  C_16
REMARK   10  A    between atoms: S_20  and  C_21
REMARK                            x       y       z     vdW  Elec       q    Type
REMARK                         _______ _______ _______ _____ _____    ______ ____
ROOT
ATOM      1  N   UNL     1     -42.392-157.698 308.397  0.00  0.00    +0.000 N 
ENDROOT
BRANCH   1   7
ATOM      2  C   UNL     1     -41.626-159.663 309.875  0.00  0.00    +0.000 A 
ATOM      3  C   UNL     1     -40.975-160.140 311.040  0.00  0.00    +0.000 A 
ATOM      4  C   UNL     1     -40.954-159.389 312.205  0.00  0.00    +0.000 A 
ATOM      5  C   UNL     1     -41.552-158.145 312.191  0.00  0.00    +0.000 A 
ATOM      6  C   UNL     1     -42.122-157.657 310.994  0.00  0.00    +0.000 A 
ATOM      7  C   UNL     1     -42.095-158.366 309.751  0.00  0.00    +0.000 A 
BRANCH   2   8
ATOM      8  C   UNL     1     -41.968-160.598 308.793  0.00  0.00    +0.000 C 
BRANCH   8  10
ATOM      9  C   UNL     1     -39.665-161.929 308.050  0.00  0.00    +0.000 C 
ATOM     10  C   UNL     1     -41.071-161.867 308.764  0.00  0.00    +0.000 C 
ENDBRANCH   8  10
ENDBRANCH   2   8
ENDBRANCH   1   7
BRANCH   1  11
ATOM     11  S   UNL     1     -41.649-157.901 306.617  0.00  0.00    +0.000 S 
ATOM     12  C   UNL     1     -40.619-156.490 306.272  0.00  0.00    +0.000 C 
ATOM     13  O   UNL     1     -40.719-159.022 306.441  0.00  0.00    +0.000 OA
ATOM     14  O   UNL     1     -42.728-157.851 305.684  0.00  0.00    +0.000 OA
ENDBRANCH   1  11
BRANCH   1  15
ATOM     15  C   UNL     1     -43.770-157.068 308.300  0.00  0.00    +0.000 C 
BRANCH  15  16
ATOM     16  C   UNL     1     -43.574-155.574 308.275  0.00  0.00    +0.000 C 
ATOM     17  O   UNL     1     -42.925-154.988 309.137  0.00  0.00    +0.000 OA
ATOM     18  N   UNL     1     -44.128-154.875 307.227  0.00  0.00    +0.000 N 
ATOM     19  H   UNL     1     -44.074-153.874 307.358  0.00  0.00    +0.000 HD
BRANCH  18  20
ATOM     20  C   UNL     1     -44.746-155.393 305.992  0.00  0.00    +0.000 C 
BRANCH  20  21
ATOM     21  C   UNL     1     -44.288-154.768 304.680  0.00  0.00    +0.000 C 
ATOM     22  F   UNL     1     -45.120-153.776 304.302  0.00  0.00    +0.000 F 
ATOM     23  F   UNL     1     -43.040-154.263 304.771  0.00  0.00    +0.000 F 
ATOM     24  F   UNL     1     -44.254-155.660 303.688  0.00  0.00    +0.000 F 
ENDBRANCH  20  21
ENDBRANCH  18  20
ENDBRANCH  15  16
ENDBRANCH   1  15
TORSDOF 8
ENDMDL
