MODEL 1
REMARK VINA RESULT:    -8.606      0.000      0.000
REMARK INTER + INTRA:         -11.269
REMARK INTER:                 -10.619
REMARK INTRA:                  -0.651
REMARK UNBOUND:                -0.651
REMARK  Name = 
REMARK  5 active torsions:
REMARK  status: ('A' for Active; 'I' for Inactive)
REMARK    1  A    between atoms: C_1  and  C_2
REMARK    2  A    between atoms: C_2  and  C_3
REMARK    3  A    between atoms: C_3  and  C_4
REMARK    4  A    between atoms: N_6  and  C_7
REMARK    5  A    between atoms: C_12  and  C_14
REMARK                            x       y       z     vdW  Elec       q    Type
REMARK                         _______ _______ _______ _____ _____    ______ ____
ROOT
ATOM      1  C   UNL     1     -40.604-163.853 310.556  0.00  0.00    +0.000 C 
ATOM      2  C   UNL     1     -41.899-164.233 309.821  0.00  0.00    +0.000 C 
ATOM      3  C   UNL     1     -42.448-163.067 309.046  0.00  0.00    +0.000 C 
ATOM      4  C   UNL     1     -42.874-162.059 310.037  0.00  0.00    +0.000 C 
ATOM      5  N   UNL     1     -41.721-161.672 310.872  0.00  0.00    +0.000 N 
ATOM      6  C   UNL     1     -41.008-160.489 310.734  0.00  0.00    +0.000 C 
ATOM      7  O   UNL     1     -39.969-160.260 311.379  0.00  0.00    +0.000 OA
ATOM      8  C   UNL     1     -41.054-162.781 311.572  0.00  0.00    +0.000 C 
ENDROOT
BRANCH   6   9
ATOM      9  C   UNL     1     -41.528-159.437 309.838  0.00  0.00    +0.000 A 
ATOM     10  C   UNL     1     -42.342-158.435 310.402  0.00  0.00    +0.000 A 
ATOM     11  C   UNL     1     -42.890-157.437 309.609  0.00  0.00    +0.000 A 
ATOM     12  C   UNL     1     -42.557-157.391 308.264  0.00  0.00    +0.000 A 
ATOM     13  F   UNL     1     -43.042-156.397 307.510  0.00  0.00    +0.000 F 
ATOM     14  C   UNL     1     -41.721-158.345 307.692  0.00  0.00    +0.000 A 
ATOM     15  C   UNL     1     -41.214-159.386 308.475  0.00  0.00    +0.000 A 
ATOM     16 CL   UNL     1     -40.237-160.569 307.683  0.00  0.00    +0.000 Cl
ENDBRANCH   6   9
BRANCH   1  19
ATOM     17  C   UNL     1     -38.985-163.942 308.546  0.00  0.00    +0.000 C 
ATOM     18  O   UNL     1     -38.360-163.204 307.779  0.00  0.00    +0.000 OA
ATOM     19  N   UNL     1     -39.519-163.387 309.674  0.00  0.00    +0.000 N 
ATOM     20  H   UNL     1     -39.203-162.428 309.810  0.00  0.00    +0.000 HD
BRANCH  17  21
ATOM     21  C   UNL     1     -39.190-165.417 308.186  0.00  0.00    +0.000 C 
BRANCH  21  23
ATOM     22  C   UNL     1     -39.100-167.302 306.225  0.00  0.00    +0.000 C 
ATOM     23  C   UNL     1     -38.762-165.897 306.779  0.00  0.00    +0.000 C 
ENDBRANCH  21  23
ENDBRANCH  17  21
ENDBRANCH   1  19
TORSDOF 4
ENDMDL
MODEL 2
REMARK VINA RESULT:    -8.333      3.039      6.709
REMARK INTER + INTRA:         -10.933
REMARK INTER:                 -10.170
REMARK INTRA:                  -0.763
REMARK UNBOUND:                -0.651
REMARK  Name = 
REMARK  5 active torsions:
REMARK  status: ('A' for Active; 'I' for Inactive)
REMARK    1  A    between atoms: C_1  and  C_2
REMARK    2  A    between atoms: C_2  and  C_3
REMARK    3  A    between atoms: C_3  and  C_4
REMARK    4  A    between atoms: N_6  and  C_7
REMARK    5  A    between atoms: C_12  and  C_14
REMARK                            x       y       z     vdW  Elec       q    Type
REMARK                         _______ _______ _______ _____ _____    ______ ____
ROOT
ATOM      1  C   UNL     1     -42.624-158.889 310.980  0.00  0.00    +0.000 C 
ATOM      2  C   UNL     1     -41.225-158.599 311.546  0.00  0.00    +0.000 C 
ATOM      3  C   UNL     1     -40.203-159.550 310.989  0.00  0.00    +0.000 C 
ATOM      4  C   UNL     1     -40.538-160.889 311.512  0.00  0.00    +0.000 C 
ATOM      5  N   UNL     1     -41.908-161.250 311.103  0.00  0.00    +0.000 N 
ATOM      6  C   UNL     1     -42.219-162.134 310.079  0.00  0.00    +0.000 C 
ATOM      7  O   UNL     1     -43.386-162.315 309.689  0.00  0.00    +0.000 OA
ATOM      8  C   UNL     1     -42.955-160.300 311.512  0.00  0.00    +0.000 C 
ENDROOT
BRANCH   6   9
ATOM      9  C   UNL     1     -41.140-162.937 309.471  0.00  0.00    +0.000 A 
ATOM     10  C   UNL     1     -40.967-164.260 309.922  0.00  0.00    +0.000 A 
ATOM     11  C   UNL     1     -39.950-165.055 309.415  0.00  0.00    +0.000 A 
ATOM     12  C   UNL     1     -39.156-164.558 308.394  0.00  0.00    +0.000 A 
ATOM     13  F   UNL     1     -38.209-165.344 307.868  0.00  0.00    +0.000 F 
ATOM     14  C   UNL     1     -39.334-163.269 307.901  0.00  0.00    +0.000 A 
ATOM     15  C   UNL     1     -40.319-162.443 308.450  0.00  0.00    +0.000 A 
ATOM     16 CL   UNL     1     -40.438-160.835 307.833  0.00  0.00    +0.000 Cl
ENDBRANCH   6   9
BRANCH   1  19
ATOM     17  C   UNL     1     -42.623-157.713 308.680  0.00  0.00    +0.000 C 
ATOM     18  O   UNL     1     -42.358-157.921 307.492  0.00  0.00    +0.000 OA
ATOM     19  N   UNL     1     -42.717-158.793 309.512  0.00  0.00    +0.000 N 
ATOM     20  H   UNL     1     -42.692-159.672 308.997  0.00  0.00    +0.000 HD
BRANCH  17  21
ATOM     21  C   UNL     1     -42.775-156.276 309.187  0.00  0.00    +0.000 C 
BRANCH  21  23
ATOM     22  C   UNL     1     -44.579-155.155 307.486  0.00  0.00    +0.000 C 
ATOM     23  C   UNL     1     -43.195-155.181 308.178  0.00  0.00    +0.000 C 
ENDBRANCH  21  23
ENDBRANCH  17  21
ENDBRANCH   1  19
TORSDOF 4
ENDMDL
MODEL 3
REMARK VINA RESULT:    -8.025      3.748      5.990
REMARK INTER + INTRA:         -10.553
REMARK INTER:                  -9.924
REMARK INTRA:                  -0.629
REMARK UNBOUND:                -0.651
REMARK  Name = 
REMARK  5 active torsions:
REMARK  status: ('A' for Active; 'I' for Inactive)
REMARK    1  A    between atoms: C_1  and  C_2
REMARK    2  A    between atoms: C_2  and  C_3
REMARK    3  A    between atoms: C_3  and  C_4
REMARK    4  A    between atoms: N_6  and  C_7
REMARK    5  A    between atoms: C_12  and  C_14
REMARK                            x       y       z     vdW  Elec       q    Type
REMARK                         _______ _______ _______ _____ _____    ______ ____
ROOT
ATOM      1  C   UNL     1     -40.936-161.233 309.072  0.00  0.00    +0.000 C 
ATOM      2  C   UNL     1     -41.659-162.588 309.024  0.00  0.00    +0.000 C 
ATOM      3  C   UNL     1     -42.430-162.841 310.290  0.00  0.00    +0.000 C 
ATOM      4  C   UNL     1     -41.435-162.997 311.370  0.00  0.00    +0.000 C 
ATOM      5  N   UNL     1     -40.610-161.777 311.460  0.00  0.00    +0.000 N 
ATOM      6  C   UNL     1     -40.756-160.797 312.432  0.00  0.00    +0.000 C 
ATOM      7  O   UNL     1     -40.120-159.728 312.398  0.00  0.00    +0.000 OA
ATOM      8  C   UNL     1     -39.916-161.397 310.220  0.00  0.00    +0.000 C 
ENDROOT
BRANCH   6   9
ATOM      9  C   UNL     1     -41.647-161.051 313.581  0.00  0.00    +0.000 A 
ATOM     10  C   UNL     1     -41.178-161.899 314.604  0.00  0.00    +0.000 A 
ATOM     11  C   UNL     1     -41.978-162.205 315.695  0.00  0.00    +0.000 A 
ATOM     12  C   UNL     1     -43.219-161.597 315.807  0.00  0.00    +0.000 A 
ATOM     13  F   UNL     1     -43.970-161.850 316.886  0.00  0.00    +0.000 F 
ATOM     14  C   UNL     1     -43.687-160.723 314.831  0.00  0.00    +0.000 A 
ATOM     15  C   UNL     1     -42.908-160.457 313.702  0.00  0.00    +0.000 A 
ATOM     16 CL   UNL     1     -43.583-159.415 312.502  0.00  0.00    +0.000 Cl
ENDBRANCH   6   9
BRANCH   1  19
ATOM     17  C   UNL     1     -41.977-158.934 308.523  0.00  0.00    +0.000 C 
ATOM     18  O   UNL     1     -43.026-158.297 308.651  0.00  0.00    +0.000 OA
ATOM     19  N   UNL     1     -41.828-160.075 309.260  0.00  0.00    +0.000 N 
ATOM     20  H   UNL     1     -42.572-160.181 309.949  0.00  0.00    +0.000 HD
BRANCH  17  21
ATOM     21  C   UNL     1     -40.920-158.469 307.516  0.00  0.00    +0.000 C 
BRANCH  21  23
ATOM     22  C   UNL     1     -41.638-157.613 305.034  0.00  0.00    +0.000 C 
ATOM     23  C   UNL     1     -41.297-157.347 306.520  0.00  0.00    +0.000 C 
ENDBRANCH  21  23
ENDBRANCH  17  21
ENDBRANCH   1  19
TORSDOF 4
ENDMDL
MODEL 4
REMARK VINA RESULT:    -7.977      3.746      7.103
REMARK INTER + INTRA:         -10.494
REMARK INTER:                  -9.756
REMARK INTRA:                  -0.738
REMARK UNBOUND:                -0.651
REMARK  Name = 
REMARK  5 active torsions:
REMARK  status: ('A' for Active; 'I' for Inactive)
REMARK    1  A    between atoms: C_1  and  C_2
REMARK    2  A    between atoms: C_2  and  C_3
REMARK    3  A    between atoms: C_3  and  C_4
REMARK    4  A    between atoms: N_6  and  C_7
REMARK    5  A    between atoms: C_12  and  C_14
REMARK                            x       y       z     vdW  Elec       q    Type
REMARK                         _______ _______ _______ _____ _____    ______ ____
ROOT
ATOM      1  C   UNL     1     -42.665-157.133 308.142  0.00  0.00    +0.000 C 
ATOM      2  C   UNL     1     -41.588-157.600 307.150  0.00  0.00    +0.000 C 
ATOM      3  C   UNL     1     -41.285-159.062 307.321  0.00  0.00    +0.000 C 
ATOM      4  C   UNL     1     -40.650-159.213 308.645  0.00  0.00    +0.000 C 
ATOM      5  N   UNL     1     -41.564-158.713 309.690  0.00  0.00    +0.000 N 
ATOM      6  C   UNL     1     -42.320-159.520 310.529  0.00  0.00    +0.000 C 
ATOM      7  O   UNL     1     -43.168-159.055 311.311  0.00  0.00    +0.000 OA
ATOM      8  C   UNL     1     -42.001-157.318 309.524  0.00  0.00    +0.000 C 
ENDROOT
BRANCH   6   9
ATOM      9  C   UNL     1     -42.072-160.975 310.541  0.00  0.00    +0.000 A 
ATOM     10  C   UNL     1     -42.713-161.762 309.565  0.00  0.00    +0.000 A 
ATOM     11  C   UNL     1     -42.547-163.139 309.542  0.00  0.00    +0.000 A 
ATOM     12  C   UNL     1     -41.673-163.724 310.446  0.00  0.00    +0.000 A 
ATOM     13  F   UNL     1     -41.472-165.046 310.390  0.00  0.00    +0.000 F 
ATOM     14  C   UNL     1     -40.995-162.963 311.393  0.00  0.00    +0.000 A 
ATOM     15  C   UNL     1     -41.204-161.582 311.457  0.00  0.00    +0.000 A 
ATOM     16 CL   UNL     1     -40.380-160.713 312.700  0.00  0.00    +0.000 Cl
ENDBRANCH   6   9
BRANCH   1  19
ATOM     17  C   UNL     1     -45.043-157.592 307.244  0.00  0.00    +0.000 C 
ATOM     18  O   UNL     1     -45.832-158.518 307.037  0.00  0.00    +0.000 OA
ATOM     19  N   UNL     1     -43.950-157.846 308.024  0.00  0.00    +0.000 N 
ATOM     20  H   UNL     1     -44.003-158.764 308.463  0.00  0.00    +0.000 HD
BRANCH  17  21
ATOM     21  C   UNL     1     -45.276-156.228 306.584  0.00  0.00    +0.000 C 
BRANCH  21  23
ATOM     22  C   UNL     1     -43.978-154.685 304.758  0.00  0.00    +0.000 C 
ATOM     23  C   UNL     1     -44.701-155.990 305.168  0.00  0.00    +0.000 C 
ENDBRANCH  21  23
ENDBRANCH  17  21
ENDBRANCH   1  19
TORSDOF 4
ENDMDL
MODEL 5
REMARK VINA RESULT:    -7.924      3.196      6.737
REMARK INTER + INTRA:         -10.428
REMARK INTER:                  -9.945
REMARK INTRA:                  -0.483
REMARK UNBOUND:                -0.651
REMARK  Name = 
REMARK  5 active torsions:
REMARK  status: ('A' for Active; 'I' for Inactive)
REMARK    1  A    between atoms: C_1  and  C_2
REMARK    2  A    between atoms: C_2  and  C_3
REMARK    3  A    between atoms: C_3  and  C_4
REMARK    4  A    between atoms: N_6  and  C_7
REMARK    5  A    between atoms: C_12  and  C_14
REMARK                            x       y       z     vdW  Elec       q    Type
REMARK                         _______ _______ _______ _____ _____    ______ ____
ROOT
ATOM      1  C   UNL     1     -42.345-159.933 310.565  0.00  0.00    +0.000 C 
ATOM      2  C   UNL     1     -41.092-159.614 311.397  0.00  0.00    +0.000 C 
ATOM      3  C   UNL     1     -39.887-160.341 310.868  0.00  0.00    +0.000 C 
ATOM      4  C   UNL     1     -40.122-161.780 311.101  0.00  0.00    +0.000 C 
ATOM      5  N   UNL     1     -41.360-162.194 310.414  0.00  0.00    +0.000 N 
ATOM      6  C   UNL     1     -41.402-162.902 309.221  0.00  0.00    +0.000 C 
ATOM      7  O   UNL     1     -42.467-163.124 308.617  0.00  0.00    +0.000 OA
ATOM      8  C   UNL     1     -42.568-161.444 310.793  0.00  0.00    +0.000 C 
ENDROOT
BRANCH   6   9
ATOM      9  C   UNL     1     -40.151-163.469 308.678  0.00  0.00    +0.000 A 
ATOM     10  C   UNL     1     -39.240-162.586 308.066  0.00  0.00    +0.000 A 
ATOM     11  C   UNL     1     -38.062-163.059 307.506  0.00  0.00    +0.000 A 
ATOM     12  C   UNL     1     -37.753-164.405 307.632  0.00  0.00    +0.000 A 
ATOM     13  F   UNL     1     -36.592-164.852 307.139  0.00  0.00    +0.000 F 
ATOM     14  C   UNL     1     -38.617-165.289 308.270  0.00  0.00    +0.000 A 
ATOM     15  C   UNL     1     -39.833-164.827 308.783  0.00  0.00    +0.000 A 
ATOM     16 CL   UNL     1     -40.883-165.994 309.502  0.00  0.00    +0.000 Cl
ENDBRANCH   6   9
BRANCH   1  19
ATOM     17  C   UNL     1     -42.270-158.365 308.513  0.00  0.00    +0.000 C 
ATOM     18  O   UNL     1     -41.785-158.283 307.381  0.00  0.00    +0.000 OA
ATOM     19  N   UNL     1     -42.232-159.580 309.138  0.00  0.00    +0.000 N 
ATOM     20  H   UNL     1     -41.921-160.320 308.510  0.00  0.00    +0.000 HD
BRANCH  17  21
ATOM     21  C   UNL     1     -42.834-157.114 309.194  0.00  0.00    +0.000 C 
BRANCH  21  23
ATOM     22  C   UNL     1     -42.705-154.907 307.608  0.00  0.00    +0.000 C 
ATOM     23  C   UNL     1     -43.500-156.034 308.310  0.00  0.00    +0.000 C 
ENDBRANCH  21  23
ENDBRANCH  17  21
ENDBRANCH   1  19
TORSDOF 4
ENDMDL
MODEL 6
REMARK VINA RESULT:    -7.378      2.326      3.496
REMARK INTER + INTRA:          -9.754
REMARK INTER:                  -9.677
REMARK INTRA:                  -0.077
REMARK UNBOUND:                -0.651
REMARK  Name = 
REMARK  5 active torsions:
REMARK  status: ('A' for Active; 'I' for Inactive)
REMARK    1  A    between atoms: C_1  and  C_2
REMARK    2  A    between atoms: C_2  and  C_3
REMARK    3  A    between atoms: C_3  and  C_4
REMARK    4  A    between atoms: N_6  and  C_7
REMARK    5  A    between atoms: C_12  and  C_14
REMARK                            x       y       z     vdW  Elec       q    Type
REMARK                         _______ _______ _______ _____ _____    ______ ____
ROOT
ATOM      1  C   UNL     1     -41.315-161.034 311.072  0.00  0.00    +0.000 C 
ATOM      2  C   UNL     1     -42.044-160.199 312.137  0.00  0.00    +0.000 C 
ATOM      3  C   UNL     1     -42.916-159.150 311.505  0.00  0.00    +0.000 C 
ATOM      4  C   UNL     1     -42.013-158.188 310.843  0.00  0.00    +0.000 C 
ATOM      5  N   UNL     1     -41.187-158.893 309.844  0.00  0.00    +0.000 N 
ATOM      6  C   UNL     1     -41.401-158.854 308.474  0.00  0.00    +0.000 C 
ATOM      7  O   UNL     1     -40.755-159.561 307.680  0.00  0.00    +0.000 OA
ATOM      8  C   UNL     1     -40.392-160.015 310.369  0.00  0.00    +0.000 C 
ENDROOT
BRANCH   6   9
ATOM      9  C   UNL     1     -42.384-157.897 307.928  0.00  0.00    +0.000 A 
ATOM     10  C   UNL     1     -43.710-157.973 308.398  0.00  0.00    +0.000 A 
ATOM     11  C   UNL     1     -44.688-157.125 307.901  0.00  0.00    +0.000 A 
ATOM     12  C   UNL     1     -44.325-156.141 306.994  0.00  0.00    +0.000 A 
ATOM     13  F   UNL     1     -45.258-155.288 306.554  0.00  0.00    +0.000 F 
ATOM     14  C   UNL     1     -43.014-156.018 306.546  0.00  0.00    +0.000 A 
ATOM     15  C   UNL     1     -42.036-156.908 306.999  0.00  0.00    +0.000 A 
ATOM     16 CL   UNL     1     -40.446-156.736 306.350  0.00  0.00    +0.000 Cl
ENDBRANCH   6   9
BRANCH   1  19
ATOM     17  C   UNL     1     -42.272-163.057 309.781  0.00  0.00    +0.000 C 
ATOM     18  O   UNL     1     -43.321-163.471 309.281  0.00  0.00    +0.000 OA
ATOM     19  N   UNL     1     -42.209-161.738 310.135  0.00  0.00    +0.000 N 
ATOM     20  H   UNL     1     -43.019-161.218 309.801  0.00  0.00    +0.000 HD
BRANCH  17  21
ATOM     21  C   UNL     1     -41.114-164.027 310.040  0.00  0.00    +0.000 C 
BRANCH  21  23
ATOM     22  C   UNL     1     -39.716-162.953 307.966  0.00  0.00    +0.000 C 
ATOM     23  C   UNL     1     -39.813-163.853 309.222  0.00  0.00    +0.000 C 
ENDBRANCH  21  23
ENDBRANCH  17  21
ENDBRANCH   1  19
TORSDOF 4
ENDMDL
MODEL 7
REMARK VINA RESULT:    -7.143      5.132      7.760
REMARK INTER + INTRA:          -9.464
REMARK INTER:                  -9.267
REMARK INTRA:                  -0.197
REMARK UNBOUND:                -0.651
REMARK  Name = 
REMARK  5 active torsions:
REMARK  status: ('A' for Active; 'I' for Inactive)
REMARK    1  A    between atoms: C_1  and  C_2
REMARK    2  A    between atoms: C_2  and  C_3
REMARK    3  A    between atoms: C_3  and  C_4
REMARK    4  A    between atoms: N_6  and  C_7
REMARK    5  A    between atoms: C_12  and  C_14
REMARK                            x       y       z     vdW  Elec       q    Type
REMARK                         _______ _______ _______ _____ _____    ______ ____
ROOT
ATOM      1  C   UNL     1     -44.544-155.162 305.469  0.00  0.00    +0.000 C 
ATOM      2  C   UNL     1     -43.190-154.436 305.426  0.00  0.00    +0.000 C 
ATOM      3  C   UNL     1     -42.127-155.220 306.145  0.00  0.00    +0.000 C 
ATOM      4  C   UNL     1     -42.494-155.222 307.575  0.00  0.00    +0.000 C 
ATOM      5  N   UNL     1     -43.830-155.824 307.740  0.00  0.00    +0.000 N 
ATOM      6  C   UNL     1     -44.064-157.112 308.204  0.00  0.00    +0.000 C 
ATOM      7  O   UNL     1     -45.200-157.619 308.211  0.00  0.00    +0.000 OA
ATOM      8  C   UNL     1     -44.907-155.182 306.970  0.00  0.00    +0.000 C 
ENDROOT
BRANCH   6   9
ATOM      9  C   UNL     1     -42.941-157.887 308.767  0.00  0.00    +0.000 A 
ATOM     10  C   UNL     1     -42.881-158.040 310.166  0.00  0.00    +0.000 A 
ATOM     11  C   UNL     1     -41.834-158.728 310.760  0.00  0.00    +0.000 A 
ATOM     12  C   UNL     1     -40.888-159.339 309.951  0.00  0.00    +0.000 A 
ATOM     13  F   UNL     1     -39.907-160.048 310.522  0.00  0.00    +0.000 F 
ATOM     14  C   UNL     1     -40.949-159.238 308.565  0.00  0.00    +0.000 A 
ATOM     15  C   UNL     1     -41.969-158.496 307.964  0.00  0.00    +0.000 A 
ATOM     16 CL   UNL     1     -41.943-158.361 306.243  0.00  0.00    +0.000 Cl
ENDBRANCH   6   9
BRANCH   1  19
ATOM     17  C   UNL     1     -45.542-157.406 304.667  0.00  0.00    +0.000 C 
ATOM     18  O   UNL     1     -45.373-158.286 303.819  0.00  0.00    +0.000 OA
ATOM     19  N   UNL     1     -44.532-156.506 304.865  0.00  0.00    +0.000 N 
ATOM     20  H   UNL     1     -43.684-156.773 304.367  0.00  0.00    +0.000 HD
BRANCH  17  21
ATOM     21  C   UNL     1     -46.876-157.312 305.414  0.00  0.00    +0.000 C 
BRANCH  21  23
ATOM     22  C   UNL     1     -47.700-159.887 305.721  0.00  0.00    +0.000 C 
ATOM     23  C   UNL     1     -47.913-158.442 305.211  0.00  0.00    +0.000 C 
ENDBRANCH  21  23
ENDBRANCH  17  21
ENDBRANCH   1  19
TORSDOF 4
ENDMDL
MODEL 8
REMARK VINA RESULT:    -6.949      4.256      7.281
REMARK INTER + INTRA:          -9.224
REMARK INTER:                 -10.985
REMARK INTRA:                   1.761
REMARK UNBOUND:                -0.651
REMARK  Name = 
REMARK  5 active torsions:
REMARK  status: ('A' for Active; 'I' for Inactive)
REMARK    1  A    between atoms: C_1  and  C_2
REMARK    2  A    between atoms: C_2  and  C_3
REMARK    3  A    between atoms: C_3  and  C_4
REMARK    4  A    between atoms: N_6  and  C_7
REMARK    5  A    between atoms: C_12  and  C_14
REMARK                            x       y       z     vdW  Elec       q    Type
REMARK                         _______ _______ _______ _____ _____    ______ ____
ROOT
ATOM      1  C   UNL     1     -44.006-156.135 306.651  0.00  0.00    +0.000 C 
ATOM      2  C   UNL     1     -43.255-156.547 305.376  0.00  0.00    +0.000 C 
ATOM      3  C   UNL     1     -42.523-157.846 305.570  0.00  0.00    +0.000 C 
ATOM      4  C   UNL     1     -41.454-157.589 306.556  0.00  0.00    +0.000 C 
ATOM      5  N   UNL     1     -42.050-157.099 307.813  0.00  0.00    +0.000 N 
ATOM      6  C   UNL     1     -42.218-157.865 308.958  0.00  0.00    +0.000 C 
ATOM      7  O   UNL     1     -42.836-157.446 309.953  0.00  0.00    +0.000 OA
ATOM      8  C   UNL     1     -42.883-155.893 307.682  0.00  0.00    +0.000 C 
ENDROOT
BRANCH   6   9
ATOM      9  C   UNL     1     -41.592-159.200 309.027  0.00  0.00    +0.000 A 
ATOM     10  C   UNL     1     -40.819-159.624 307.928  0.00  0.00    +0.000 A 
ATOM     11  C   UNL     1     -40.231-160.880 307.916  0.00  0.00    +0.000 A 
ATOM     12  C   UNL     1     -40.345-161.684 309.040  0.00  0.00    +0.000 A 
ATOM     13  F   UNL     1     -39.733-162.874 309.050  0.00  0.00    +0.000 F 
ATOM     14  C   UNL     1     -41.067-161.271 310.155  0.00  0.00    +0.000 A 
ATOM     15  C   UNL     1     -41.710-160.030 310.148  0.00  0.00    +0.000 A 
ATOM     16 CL   UNL     1     -42.642-159.614 311.541  0.00  0.00    +0.000 Cl
ENDBRANCH   6   9
BRANCH   1  19
ATOM     17  C   UNL     1     -45.849-157.929 306.409  0.00  0.00    +0.000 C 
ATOM     18  O   UNL     1     -46.313-158.916 306.986  0.00  0.00    +0.000 OA
ATOM     19  N   UNL     1     -45.005-157.116 307.112  0.00  0.00    +0.000 N 
ATOM     20  H   UNL     1     -44.977-157.362 308.101  0.00  0.00    +0.000 HD
BRANCH  17  21
ATOM     21  C   UNL     1     -46.177-157.683 304.933  0.00  0.00    +0.000 C 
BRANCH  21  23
ATOM     22  C   UNL     1     -48.453-159.126 304.548  0.00  0.00    +0.000 C 
ATOM     23  C   UNL     1     -46.998-158.754 304.175  0.00  0.00    +0.000 C 
ENDBRANCH  21  23
ENDBRANCH  17  21
ENDBRANCH   1  19
TORSDOF 4
ENDMDL
MODEL 9
REMARK VINA RESULT:    -6.715      1.930      2.428
REMARK INTER + INTRA:          -8.935
REMARK INTER:                  -8.361
REMARK INTRA:                  -0.574
REMARK UNBOUND:                -0.651
REMARK  Name = 
REMARK  5 active torsions:
REMARK  status: ('A' for Active; 'I' for Inactive)
REMARK    1  A    between atoms: C_1  and  C_2
REMARK    2  A    between atoms: C_2  and  C_3
REMARK    3  A    between atoms: C_3  and  C_4
REMARK    4  A    between atoms: N_6  and  C_7
REMARK    5  A    between atoms: C_12  and  C_14
REMARK                            x       y       z     vdW  Elec       q    Type
REMARK                         _______ _______ _______ _____ _____    ______ ____
ROOT
ATOM      1  C   UNL     1     -39.913-164.087 308.802  0.00  0.00    +0.000 C 
ATOM      2  C   UNL     1     -41.378-164.006 308.345  0.00  0.00    +0.000 C 
ATOM      3  C   UNL     1     -42.004-162.700 308.749  0.00  0.00    +0.000 C 
ATOM      4  C   UNL     1     -42.082-162.703 310.224  0.00  0.00    +0.000 C 
ATOM      5  N   UNL     1     -40.728-162.864 310.788  0.00  0.00    +0.000 N 
ATOM      6  C   UNL     1     -39.976-161.836 311.340  0.00  0.00    +0.000 C 
ATOM      7  O   UNL     1     -38.794-161.993 311.692  0.00  0.00    +0.000 OA
ATOM      8  C   UNL     1     -40.002-164.064 310.343  0.00  0.00    +0.000 C 
ENDROOT
BRANCH   6   9
ATOM      9  C   UNL     1     -40.615-160.526 311.577  0.00  0.00    +0.000 A 
ATOM     10  C   UNL     1     -40.982-160.201 312.897  0.00  0.00    +0.000 A 
ATOM     11  C   UNL     1     -41.616-159.001 313.182  0.00  0.00    +0.000 A 
ATOM     12  C   UNL     1     -41.808-158.085 312.159  0.00  0.00    +0.000 A 
ATOM     13  F   UNL     1     -42.371-156.904 312.443  0.00  0.00    +0.000 F 
ATOM     14  C   UNL     1     -41.415-158.365 310.854  0.00  0.00    +0.000 A 
ATOM     15  C   UNL     1     -40.830-159.597 310.552  0.00  0.00    +0.000 A 
ATOM     16 CL   UNL     1     -40.429-159.900 308.900  0.00  0.00    +0.000 Cl
ENDBRANCH   6   9
BRANCH   1  19
ATOM     17  C   UNL     1     -38.063-163.064 307.316  0.00  0.00    +0.000 C 
ATOM     18  O   UNL     1     -37.746-162.006 306.766  0.00  0.00    +0.000 OA
ATOM     19  N   UNL     1     -39.048-163.022 308.263  0.00  0.00    +0.000 N 
ATOM     20  H   UNL     1     -39.306-162.064 308.499  0.00  0.00    +0.000 HD
BRANCH  17  21
ATOM     21  C   UNL     1     -37.399-164.377 306.888  0.00  0.00    +0.000 C 
BRANCH  21  23
ATOM     22  C   UNL     1     -38.780-166.577 306.078  0.00  0.00    +0.000 C 
ATOM     23  C   UNL     1     -38.087-165.224 305.791  0.00  0.00    +0.000 C 
ENDBRANCH  21  23
ENDBRANCH  17  21
ENDBRANCH   1  19
TORSDOF 4
ENDMDL
MODEL 10
REMARK VINA RESULT:    -6.681      4.308      7.806
REMARK INTER + INTRA:          -8.894
REMARK INTER:                  -9.261
REMARK INTRA:                   0.367
REMARK UNBOUND:                -0.651
REMARK  Name = 
REMARK  5 active torsions:
REMARK  status: ('A' for Active; 'I' for Inactive)
REMARK    1  A    between atoms: C_1  and  C_2
REMARK    2  A    between atoms: C_2  and  C_3
REMARK    3  A    between atoms: C_3  and  C_4
REMARK    4  A    between atoms: N_6  and  C_7
REMARK    5  A    between atoms: C_12  and  C_14
REMARK                            x       y       z     vdW  Elec       q    Type
REMARK                         _______ _______ _______ _____ _____    ______ ____
ROOT
ATOM      1  C   UNL     1     -42.791-156.167 305.398  0.00  0.00    +0.000 C 
ATOM      2  C   UNL     1     -41.461-156.577 304.747  0.00  0.00    +0.000 C 
ATOM      3  C   UNL     1     -40.871-157.782 305.424  0.00  0.00    +0.000 C 
ATOM      4  C   UNL     1     -40.494-157.363 306.788  0.00  0.00    +0.000 C 
ATOM      5  N   UNL     1     -41.687-156.862 307.497  0.00  0.00    +0.000 N 
ATOM      6  C   UNL     1     -42.390-157.573 308.460  0.00  0.00    +0.000 C 
ATOM      7  O   UNL     1     -43.459-157.160 308.942  0.00  0.00    +0.000 OA
ATOM      8  C   UNL     1     -42.392-155.755 306.831  0.00  0.00    +0.000 C 
ENDROOT
BRANCH   6   9
ATOM      9  C   UNL     1     -41.821-158.832 308.980  0.00  0.00    +0.000 A 
ATOM     10  C   UNL     1     -41.498-159.842 308.052  0.00  0.00    +0.000 A 
ATOM     11  C   UNL     1     -40.991-161.061 308.478  0.00  0.00    +0.000 A 
ATOM     12  C   UNL     1     -40.727-161.242 309.827  0.00  0.00    +0.000 A 
ATOM     13  F   UNL     1     -40.189-162.399 310.232  0.00  0.00    +0.000 F 
ATOM     14  C   UNL     1     -40.998-160.245 310.758  0.00  0.00    +0.000 A 
ATOM     15  C   UNL     1     -41.564-159.037 310.340  0.00  0.00    +0.000 A 
ATOM     16 CL   UNL     1     -41.933-157.872 311.560  0.00  0.00    +0.000 Cl
ENDBRANCH   6   9
BRANCH   1  19
ATOM     17  C   UNL     1     -45.174-157.145 305.600  0.00  0.00    +0.000 C 
ATOM     18  O   UNL     1     -45.882-158.054 305.159  0.00  0.00    +0.000 OA
ATOM     19  N   UNL     1     -43.828-157.214 305.372  0.00  0.00    +0.000 N 
ATOM     20  H   UNL     1     -43.558-158.112 304.972  0.00  0.00    +0.000 HD
BRANCH  17  21
ATOM     21  C   UNL     1     -45.819-155.958 306.323  0.00  0.00    +0.000 C 
BRANCH  21  23
ATOM     22  C   UNL     1     -45.016-154.037 304.571  0.00  0.00    +0.000 C 
ATOM     23  C   UNL     1     -46.066-154.657 305.524  0.00  0.00    +0.000 C 
ENDBRANCH  21  23
ENDBRANCH  17  21
ENDBRANCH   1  19
TORSDOF 4
ENDMDL
