MODEL 1
REMARK VINA RESULT:    -8.803      0.000      0.000
REMARK INTER + INTRA:         -10.708
REMARK INTER:                 -10.347
REMARK INTRA:                  -0.360
REMARK UNBOUND:                -0.360
REMARK  Name = 
REMARK  4 active torsions:
REMARK  status: ('A' for Active; 'I' for Inactive)
REMARK    1  A    between atoms: C_1  and  C_2
REMARK    2  A    between atoms: C_2  and  C_3
REMARK    3  A    between atoms: C_5  and  S_6
REMARK    4  A    between atoms: S_6  and  C_7
REMARK                            x       y       z     vdW  Elec       q    Type
REMARK                         _______ _______ _______ _____ _____    ______ ____
ROOT
ATOM      1  C   UNL     1     -42.595-157.937 307.881  0.00  0.00    +0.000 A 
ATOM      2  C   UNL     1     -41.590-157.698 306.935  0.00  0.00    +0.000 A 
ATOM      3  C   UNL     1     -41.880-157.028 305.746  0.00  0.00    +0.000 A 
ATOM      4  C   UNL     1     -43.165-156.537 305.522  0.00  0.00    +0.000 A 
ATOM      5  C   UNL     1     -44.177-156.740 306.460  0.00  0.00    +0.000 A 
ATOM      6  C   UNL     1     -43.901-157.481 307.622  0.00  0.00    +0.000 A 
ATOM      7  O   UNL     1     -45.453-156.271 306.259  0.00  0.00    +0.000 OA
ATOM      8  C   UNL     1     -45.527-154.836 306.191  0.00  0.00    +0.000 C 
ATOM      9  C   UNL     1     -45.090-154.234 304.856  0.00  0.00    +0.000 C 
ATOM     10  C   UNL     1     -43.616-154.490 304.602  0.00  0.00    +0.000 C 
ATOM     11  O   UNL     1     -43.377-155.874 304.345  0.00  0.00    +0.000 OA
ENDROOT
BRANCH   1  12
ATOM     12  S   UNL     1     -42.074-158.595 309.466  0.00  0.00    +0.000 S 
BRANCH  12  15
ATOM     13  C   UNL     1     -41.020-161.629 311.025  0.00  0.00    +0.000 C 
ATOM     14  C   UNL     1     -42.367-161.205 310.478  0.00  0.00    +0.000 C 
ATOM     15  C   UNL     1     -42.006-160.402 309.254  0.00  0.00    +0.000 C 
ATOM     16  C   UNL     1     -40.638-160.903 308.888  0.00  0.00    +0.000 C 
ATOM     17  O   UNL     1     -40.045-160.678 307.850  0.00  0.00    +0.000 OA
ATOM     18  O   UNL     1     -40.135-161.672 309.901  0.00  0.00    +0.000 OA
BRANCH  13  20
ATOM     19  C   UNL     1     -41.435-164.134 310.820  0.00  0.00    +0.000 C 
ATOM     20  C   UNL     1     -41.035-162.981 311.734  0.00  0.00    +0.000 C 
ENDBRANCH  13  20
ENDBRANCH  12  15
ENDBRANCH   1  12
TORSDOF 3
ENDMDL
MODEL 2
REMARK VINA RESULT:    -8.759      2.337      7.159
REMARK INTER + INTRA:         -10.656
REMARK INTER:                 -10.287
REMARK INTRA:                  -0.369
REMARK UNBOUND:                -0.360
REMARK  Name = 
REMARK  4 active torsions:
REMARK  status: ('A' for Active; 'I' for Inactive)
REMARK    1  A    between atoms: C_1  and  C_2
REMARK    2  A    between atoms: C_2  and  C_3
REMARK    3  A    between atoms: C_5  and  S_6
REMARK    4  A    between atoms: S_6  and  C_7
REMARK                            x       y       z     vdW  Elec       q    Type
REMARK                         _______ _______ _______ _____ _____    ______ ____
ROOT
ATOM      1  C   UNL     1     -42.055-158.050 308.240  0.00  0.00    +0.000 A 
ATOM      2  C   UNL     1     -41.204-159.116 307.916  0.00  0.00    +0.000 A 
ATOM      3  C   UNL     1     -40.708-159.954 308.914  0.00  0.00    +0.000 A 
ATOM      4  C   UNL     1     -41.107-159.773 310.236  0.00  0.00    +0.000 A 
ATOM      5  C   UNL     1     -41.973-158.735 310.581  0.00  0.00    +0.000 A 
ATOM      6  C   UNL     1     -42.412-157.845 309.586  0.00  0.00    +0.000 A 
ATOM      7  O   UNL     1     -42.376-158.532 311.879  0.00  0.00    +0.000 OA
ATOM      8  C   UNL     1     -43.148-159.622 312.412  0.00  0.00    +0.000 C 
ATOM      9  C   UNL     1     -42.327-160.833 312.852  0.00  0.00    +0.000 C 
ATOM     10  C   UNL     1     -41.636-161.481 311.665  0.00  0.00    +0.000 C 
ATOM     11  O   UNL     1     -40.597-160.642 311.161  0.00  0.00    +0.000 OA
ENDROOT
BRANCH   1  12
ATOM     12  S   UNL     1     -42.819-157.180 306.871  0.00  0.00    +0.000 S 
BRANCH  12  15
ATOM     13  C   UNL     1     -46.070-157.630 305.464  0.00  0.00    +0.000 C 
ATOM     14  C   UNL     1     -45.413-158.254 306.678  0.00  0.00    +0.000 C 
ATOM     15  C   UNL     1     -44.598-157.122 307.251  0.00  0.00    +0.000 C 
ATOM     16  C   UNL     1     -45.276-155.890 306.723  0.00  0.00    +0.000 C 
ATOM     17  O   UNL     1     -45.078-154.748 307.091  0.00  0.00    +0.000 OA
ATOM     18  O   UNL     1     -46.174-156.231 305.749  0.00  0.00    +0.000 OA
BRANCH  13  20
ATOM     19  C   UNL     1     -47.638-159.629 305.645  0.00  0.00    +0.000 C 
ATOM     20  C   UNL     1     -47.445-158.204 305.138  0.00  0.00    +0.000 C 
ENDBRANCH  13  20
ENDBRANCH  12  15
ENDBRANCH   1  12
TORSDOF 3
ENDMDL
MODEL 3
REMARK VINA RESULT:    -8.655      1.895      7.454
REMARK INTER + INTRA:         -10.534
REMARK INTER:                 -10.236
REMARK INTRA:                  -0.297
REMARK UNBOUND:                -0.360
REMARK  Name = 
REMARK  4 active torsions:
REMARK  status: ('A' for Active; 'I' for Inactive)
REMARK    1  A    between atoms: C_1  and  C_2
REMARK    2  A    between atoms: C_2  and  C_3
REMARK    3  A    between atoms: C_5  and  S_6
REMARK    4  A    between atoms: S_6  and  C_7
REMARK                            x       y       z     vdW  Elec       q    Type
REMARK                         _______ _______ _______ _____ _____    ______ ____
ROOT
ATOM      1  C   UNL     1     -42.009-158.477 308.361  0.00  0.00    +0.000 A 
ATOM      2  C   UNL     1     -42.453-157.844 309.529  0.00  0.00    +0.000 A 
ATOM      3  C   UNL     1     -42.456-158.525 310.747  0.00  0.00    +0.000 A 
ATOM      4  C   UNL     1     -41.956-159.824 310.817  0.00  0.00    +0.000 A 
ATOM      5  C   UNL     1     -41.485-160.467 309.673  0.00  0.00    +0.000 A 
ATOM      6  C   UNL     1     -41.553-159.807 308.434  0.00  0.00    +0.000 A 
ATOM      7  O   UNL     1     -40.993-161.749 309.715  0.00  0.00    +0.000 OA
ATOM      8  C   UNL     1     -39.807-161.877 310.520  0.00  0.00    +0.000 C 
ATOM      9  C   UNL     1     -40.057-161.917 312.027  0.00  0.00    +0.000 C 
ATOM     10  C   UNL     1     -40.635-160.602 312.516  0.00  0.00    +0.000 C 
ATOM     11  O   UNL     1     -41.970-160.426 312.045  0.00  0.00    +0.000 OA
ENDROOT
BRANCH   1  12
ATOM     12  S   UNL     1     -41.828-157.449 306.903  0.00  0.00    +0.000 S 
BRANCH  12  15
ATOM     13  C   UNL     1     -45.061-157.509 305.387  0.00  0.00    +0.000 C 
ATOM     14  C   UNL     1     -44.641-157.363 306.835  0.00  0.00    +0.000 C 
ATOM     15  C   UNL     1     -43.390-156.526 306.750  0.00  0.00    +0.000 C 
ATOM     16  C   UNL     1     -43.528-155.810 305.437  0.00  0.00    +0.000 C 
ATOM     17  O   UNL     1     -42.846-154.879 305.052  0.00  0.00    +0.000 OA
ATOM     18  O   UNL     1     -44.552-156.354 304.713  0.00  0.00    +0.000 OA
BRANCH  13  20
ATOM     19  C   UNL     1     -46.983-158.831 304.366  0.00  0.00    +0.000 C 
ATOM     20  C   UNL     1     -46.570-157.614 305.186  0.00  0.00    +0.000 C 
ENDBRANCH  13  20
ENDBRANCH  12  15
ENDBRANCH   1  12
TORSDOF 3
ENDMDL
MODEL 4
REMARK VINA RESULT:    -8.519      1.354      7.716
REMARK INTER + INTRA:         -10.373
REMARK INTER:                 -10.036
REMARK INTRA:                  -0.337
REMARK UNBOUND:                -0.360
REMARK  Name = 
REMARK  4 active torsions:
REMARK  status: ('A' for Active; 'I' for Inactive)
REMARK    1  A    between atoms: C_1  and  C_2
REMARK    2  A    between atoms: C_2  and  C_3
REMARK    3  A    between atoms: C_5  and  S_6
REMARK    4  A    between atoms: S_6  and  C_7
REMARK                            x       y       z     vdW  Elec       q    Type
REMARK                         _______ _______ _______ _____ _____    ______ ____
ROOT
ATOM      1  C   UNL     1     -41.664-159.041 309.088  0.00  0.00    +0.000 A 
ATOM      2  C   UNL     1     -40.973-159.380 307.918  0.00  0.00    +0.000 A 
ATOM      3  C   UNL     1     -40.223-160.555 307.852  0.00  0.00    +0.000 A 
ATOM      4  C   UNL     1     -40.209-161.431 308.936  0.00  0.00    +0.000 A 
ATOM      5  C   UNL     1     -40.909-161.128 310.103  0.00  0.00    +0.000 A 
ATOM      6  C   UNL     1     -41.602-159.909 310.195  0.00  0.00    +0.000 A 
ATOM      7  O   UNL     1     -40.905-161.972 311.188  0.00  0.00    +0.000 OA
ATOM      8  C   UNL     1     -41.511-163.248 310.917  0.00  0.00    +0.000 C 
ATOM      9  C   UNL     1     -40.625-164.226 310.146  0.00  0.00    +0.000 C 
ATOM     10  C   UNL     1     -40.332-163.708 308.749  0.00  0.00    +0.000 C 
ATOM     11  O   UNL     1     -39.469-162.573 308.799  0.00  0.00    +0.000 OA
ENDROOT
BRANCH   1  12
ATOM     12  S   UNL     1     -42.777-157.639 308.993  0.00  0.00    +0.000 S 
BRANCH  12  15
ATOM     13  C   UNL     1     -43.434-155.215 306.454  0.00  0.00    +0.000 C 
ATOM     14  C   UNL     1     -42.422-156.339 306.521  0.00  0.00    +0.000 C 
ATOM     15  C   UNL     1     -43.172-157.440 307.227  0.00  0.00    +0.000 C 
ATOM     16  C   UNL     1     -44.616-157.104 306.978  0.00  0.00    +0.000 C 
ATOM     17  O   UNL     1     -45.569-157.829 307.192  0.00  0.00    +0.000 OA
ATOM     18  O   UNL     1     -44.720-155.843 306.459  0.00  0.00    +0.000 OA
BRANCH  13  20
ATOM     19  C   UNL     1     -44.417-154.503 304.216  0.00  0.00    +0.000 C 
ATOM     20  C   UNL     1     -43.290-154.321 305.226  0.00  0.00    +0.000 C 
ENDBRANCH  13  20
ENDBRANCH  12  15
ENDBRANCH   1  12
TORSDOF 3
ENDMDL
