MODEL 1
REMARK VINA RESULT:   -10.071      0.000      0.000
REMARK INTER + INTRA:         -12.847
REMARK INTER:                 -12.426
REMARK INTRA:                  -0.422
REMARK UNBOUND:                -0.422
REMARK  Name = 
REMARK  5 active torsions:
REMARK  status: ('A' for Active; 'I' for Inactive)
REMARK    1  A    between atoms: C_1  and  C_2
REMARK    2  A    between atoms: C_2  and  C_3
REMARK    3  A    between atoms: C_6  and  N_7
REMARK    4  A    between atoms: C_8  and  C_10
REMARK    5  A    between atoms: C_10  and  N_11
REMARK                            x       y       z     vdW  Elec       q    Type
REMARK                         _______ _______ _______ _____ _____    ______ ____
ROOT
ATOM      1  N   UNL     1     -42.481-157.742 308.143  0.00  0.00    +0.000 N 
ATOM      2  C   UNL     1     -41.824-158.682 308.920  0.00  0.00    +0.000 C 
ATOM      3  O   UNL     1     -40.936-159.387 308.436  0.00  0.00    +0.000 OA
ATOM      4  H   UNL     1     -42.059-157.690 307.221  0.00  0.00    +0.000 HD
ENDROOT
BRANCH   1   8
ATOM      5  C   UNL     1     -43.744-154.892 306.172  0.00  0.00    +0.000 C 
ATOM      6  C   UNL     1     -44.334-156.313 306.222  0.00  0.00    +0.000 C 
ATOM      7  C   UNL     1     -44.708-156.810 307.627  0.00  0.00    +0.000 C 
ATOM      8  C   UNL     1     -43.525-156.745 308.546  0.00  0.00    +0.000 C 
ATOM      9  C   UNL     1     -43.215-155.237 308.486  0.00  0.00    +0.000 C 
ATOM     10  C   UNL     1     -42.597-154.818 307.145  0.00  0.00    +0.000 C 
BRANCH   5  12
ATOM     11  C   UNL     1     -44.069-155.263 303.659  0.00  0.00    +0.000 C 
ATOM     12  C   UNL     1     -43.336-154.497 304.755  0.00  0.00    +0.000 C 
ENDBRANCH   5  12
ENDBRANCH   1   8
BRANCH   2  13
ATOM     13  C   UNL     1     -42.181-158.752 310.384  0.00  0.00    +0.000 C 
BRANCH  13  14
ATOM     14  N   UNL     1     -41.706-159.973 311.035  0.00  0.00    +0.000 N 
ATOM     15  C   UNL     1     -40.732-159.937 312.048  0.00  0.00    +0.000 A 
ATOM     16  O   UNL     1     -40.396-158.964 312.737  0.00  0.00    +0.000 OA
ATOM     17  N   UNL     1     -40.197-161.225 312.149  0.00  0.00    +0.000 N 
ATOM     18  C   UNL     1     -40.863-162.071 311.273  0.00  0.00    +0.000 A 
ATOM     19  C   UNL     1     -40.540-163.383 310.917  0.00  0.00    +0.000 A 
ATOM     20  C   UNL     1     -41.328-164.031 309.966  0.00  0.00    +0.000 A 
ATOM     21  C   UNL     1     -42.525-163.424 309.567  0.00  0.00    +0.000 A 
ATOM     22  C   UNL     1     -42.819-162.066 309.926  0.00  0.00    +0.000 A 
ATOM     23  C   UNL     1     -41.913-161.353 310.707  0.00  0.00    +0.000 A 
ATOM     24  H   UNL     1     -39.512-161.502 312.828  0.00  0.00    +0.000 HD
ENDBRANCH  13  14
ENDBRANCH   2  13
TORSDOF 4
ENDMDL
MODEL 2
REMARK VINA RESULT:    -9.489      2.644      7.035
REMARK INTER + INTRA:         -12.129
REMARK INTER:                 -11.343
REMARK INTRA:                  -0.786
REMARK UNBOUND:                -0.422
REMARK  Name = 
REMARK  5 active torsions:
REMARK  status: ('A' for Active; 'I' for Inactive)
REMARK    1  A    between atoms: C_1  and  C_2
REMARK    2  A    between atoms: C_2  and  C_3
REMARK    3  A    between atoms: C_6  and  N_7
REMARK    4  A    between atoms: C_8  and  C_10
REMARK    5  A    between atoms: C_10  and  N_11
REMARK                            x       y       z     vdW  Elec       q    Type
REMARK                         _______ _______ _______ _____ _____    ______ ____
ROOT
ATOM      1  N   UNL     1     -39.852-162.878 310.538  0.00  0.00    +0.000 N 
ATOM      2  C   UNL     1     -40.239-161.964 311.505  0.00  0.00    +0.000 C 
ATOM      3  O   UNL     1     -39.417-161.504 312.299  0.00  0.00    +0.000 OA
ATOM      4  H   UNL     1     -38.844-163.001 310.552  0.00  0.00    +0.000 HD
ENDROOT
BRANCH   1   8
ATOM      5  C   UNL     1     -38.640-164.219 307.323  0.00  0.00    +0.000 C 
ATOM      6  C   UNL     1     -38.845-165.004 308.632  0.00  0.00    +0.000 C 
ATOM      7  C   UNL     1     -40.263-164.924 309.219  0.00  0.00    +0.000 C 
ATOM      8  C   UNL     1     -40.666-163.497 309.442  0.00  0.00    +0.000 C 
ATOM      9  C   UNL     1     -40.562-162.956 308.004  0.00  0.00    +0.000 C 
ATOM     10  C   UNL     1     -39.107-162.804 307.538  0.00  0.00    +0.000 C 
BRANCH   5  12
ATOM     11  C   UNL     1     -36.615-165.704 306.813  0.00  0.00    +0.000 C 
ATOM     12  C   UNL     1     -37.193-164.293 306.840  0.00  0.00    +0.000 C 
ENDBRANCH   5  12
ENDBRANCH   1   8
BRANCH   2  13
ATOM     13  C   UNL     1     -41.676-161.503 311.496  0.00  0.00    +0.000 C 
BRANCH  13  14
ATOM     14  N   UNL     1     -41.827-160.102 311.104  0.00  0.00    +0.000 N 
ATOM     15  C   UNL     1     -42.515-159.181 311.914  0.00  0.00    +0.000 A 
ATOM     16  O   UNL     1     -42.778-159.286 313.119  0.00  0.00    +0.000 OA
ATOM     17  N   UNL     1     -42.854-158.094 311.103  0.00  0.00    +0.000 N 
ATOM     18  C   UNL     1     -42.334-158.288 309.830  0.00  0.00    +0.000 A 
ATOM     19  C   UNL     1     -42.581-157.551 308.668  0.00  0.00    +0.000 A 
ATOM     20  C   UNL     1     -41.986-157.964 307.476  0.00  0.00    +0.000 A 
ATOM     21  C   UNL     1     -41.006-158.962 307.532  0.00  0.00    +0.000 A 
ATOM     22  C   UNL     1     -40.791-159.720 308.731  0.00  0.00    +0.000 A 
ATOM     23  C   UNL     1     -41.550-159.437 309.864  0.00  0.00    +0.000 A 
ATOM     24  H   UNL     1     -43.310-157.263 311.431  0.00  0.00    +0.000 HD
ENDBRANCH  13  14
ENDBRANCH   2  13
TORSDOF 4
ENDMDL
MODEL 3
REMARK VINA RESULT:    -9.465      1.645      2.510
REMARK INTER + INTRA:         -12.100
REMARK INTER:                 -11.577
REMARK INTRA:                  -0.523
REMARK UNBOUND:                -0.422
REMARK  Name = 
REMARK  5 active torsions:
REMARK  status: ('A' for Active; 'I' for Inactive)
REMARK    1  A    between atoms: C_1  and  C_2
REMARK    2  A    between atoms: C_2  and  C_3
REMARK    3  A    between atoms: C_6  and  N_7
REMARK    4  A    between atoms: C_8  and  C_10
REMARK    5  A    between atoms: C_10  and  N_11
REMARK                            x       y       z     vdW  Elec       q    Type
REMARK                         _______ _______ _______ _____ _____    ______ ____
ROOT
ATOM      1  N   UNL     1     -41.700-157.984 308.142  0.00  0.00    +0.000 N 
ATOM      2  C   UNL     1     -41.254-159.291 308.252  0.00  0.00    +0.000 C 
ATOM      3  O   UNL     1     -40.157-159.620 307.798  0.00  0.00    +0.000 OA
ATOM      4  H   UNL     1     -40.975-157.396 307.743  0.00  0.00    +0.000 HD
ENDROOT
BRANCH   1   8
ATOM      5  C   UNL     1     -43.671-155.242 306.658  0.00  0.00    +0.000 C 
ATOM      6  C   UNL     1     -43.886-156.752 306.447  0.00  0.00    +0.000 C 
ATOM      7  C   UNL     1     -44.099-157.561 307.737  0.00  0.00    +0.000 C 
ATOM      8  C   UNL     1     -42.953-157.363 308.683  0.00  0.00    +0.000 C 
ATOM      9  C   UNL     1     -43.031-155.839 308.891  0.00  0.00    +0.000 C 
ATOM     10  C   UNL     1     -42.562-155.054 307.658  0.00  0.00    +0.000 C 
BRANCH   5  12
ATOM     11  C   UNL     1     -44.039-155.182 304.124  0.00  0.00    +0.000 C 
ATOM     12  C   UNL     1     -43.401-154.520 305.341  0.00  0.00    +0.000 C 
ENDBRANCH   5  12
ENDBRANCH   1   8
BRANCH   2  13
ATOM     13  C   UNL     1     -42.122-160.264 309.011  0.00  0.00    +0.000 C 
BRANCH  13  14
ATOM     14  N   UNL     1     -41.655-160.509 310.375  0.00  0.00    +0.000 N 
ATOM     15  C   UNL     1     -40.615-161.415 310.647  0.00  0.00    +0.000 A 
ATOM     16  O   UNL     1     -39.770-161.852 309.854  0.00  0.00    +0.000 OA
ATOM     17  N   UNL     1     -40.699-161.742 312.003  0.00  0.00    +0.000 N 
ATOM     18  C   UNL     1     -41.720-161.009 312.593  0.00  0.00    +0.000 A 
ATOM     19  C   UNL     1     -42.266-161.151 313.871  0.00  0.00    +0.000 A 
ATOM     20  C   UNL     1     -43.335-160.333 314.236  0.00  0.00    +0.000 A 
ATOM     21  C   UNL     1     -43.676-159.268 313.394  0.00  0.00    +0.000 A 
ATOM     22  C   UNL     1     -43.119-159.161 312.076  0.00  0.00    +0.000 A 
ATOM     23  C   UNL     1     -42.203-160.117 311.641  0.00  0.00    +0.000 A 
ATOM     24  H   UNL     1     -40.048-162.336 312.484  0.00  0.00    +0.000 HD
ENDBRANCH  13  14
ENDBRANCH   2  13
TORSDOF 4
ENDMDL
MODEL 4
REMARK VINA RESULT:    -9.419      1.752      2.770
REMARK INTER + INTRA:         -12.044
REMARK INTER:                 -11.340
REMARK INTRA:                  -0.703
REMARK UNBOUND:                -0.422
REMARK  Name = 
REMARK  5 active torsions:
REMARK  status: ('A' for Active; 'I' for Inactive)
REMARK    1  A    between atoms: C_1  and  C_2
REMARK    2  A    between atoms: C_2  and  C_3
REMARK    3  A    between atoms: C_6  and  N_7
REMARK    4  A    between atoms: C_8  and  C_10
REMARK    5  A    between atoms: C_10  and  N_11
REMARK                            x       y       z     vdW  Elec       q    Type
REMARK                         _______ _______ _______ _____ _____    ______ ____
ROOT
ATOM      1  N   UNL     1     -43.014-157.427 309.209  0.00  0.00    +0.000 N 
ATOM      2  C   UNL     1     -42.439-158.479 309.902  0.00  0.00    +0.000 C 
ATOM      3  O   UNL     1     -43.111-159.165 310.674  0.00  0.00    +0.000 OA
ATOM      4  H   UNL     1     -44.016-157.402 309.373  0.00  0.00    +0.000 HD
ENDROOT
BRANCH   1   8
ATOM      5  C   UNL     1     -44.629-156.032 306.200  0.00  0.00    +0.000 C 
ATOM      6  C   UNL     1     -44.541-155.374 307.589  0.00  0.00    +0.000 C 
ATOM      7  C   UNL     1     -43.114-155.206 308.136  0.00  0.00    +0.000 C 
ATOM      8  C   UNL     1     -42.403-156.525 308.179  0.00  0.00    +0.000 C 
ATOM      9  C   UNL     1     -42.452-156.911 306.689  0.00  0.00    +0.000 C 
ATOM     10  C   UNL     1     -43.859-157.325 306.236  0.00  0.00    +0.000 C 
BRANCH   5  12
ATOM     11  C   UNL     1     -46.400-157.636 305.276  0.00  0.00    +0.000 C 
ATOM     12  C   UNL     1     -46.078-156.225 305.757  0.00  0.00    +0.000 C 
ENDBRANCH   5  12
ENDBRANCH   1   8
BRANCH   2  13
ATOM     13  C   UNL     1     -40.991-158.794 309.618  0.00  0.00    +0.000 C 
BRANCH  13  14
ATOM     14  N   UNL     1     -40.773-160.183 309.214  0.00  0.00    +0.000 N 
ATOM     15  C   UNL     1     -40.741-160.561 307.861  0.00  0.00    +0.000 A 
ATOM     16  O   UNL     1     -40.558-159.829 306.878  0.00  0.00    +0.000 OA
ATOM     17  N   UNL     1     -40.950-161.942 307.814  0.00  0.00    +0.000 N 
ATOM     18  C   UNL     1     -41.042-162.439 309.108  0.00  0.00    +0.000 A 
ATOM     19  C   UNL     1     -41.426-163.717 309.523  0.00  0.00    +0.000 A 
ATOM     20  C   UNL     1     -41.501-163.981 310.890  0.00  0.00    +0.000 A 
ATOM     21  C   UNL     1     -40.988-163.030 311.781  0.00  0.00    +0.000 A 
ATOM     22  C   UNL     1     -40.626-161.716 311.331  0.00  0.00    +0.000 A 
ATOM     23  C   UNL     1     -40.760-161.394 309.982  0.00  0.00    +0.000 A 
ATOM     24  H   UNL     1     -40.929-162.490 306.974  0.00  0.00    +0.000 HD
ENDBRANCH  13  14
ENDBRANCH   2  13
TORSDOF 4
ENDMDL
MODEL 5
REMARK VINA RESULT:    -9.358      3.353      4.906
REMARK INTER + INTRA:         -11.968
REMARK INTER:                 -11.162
REMARK INTRA:                  -0.806
REMARK UNBOUND:                -0.422
REMARK  Name = 
REMARK  5 active torsions:
REMARK  status: ('A' for Active; 'I' for Inactive)
REMARK    1  A    between atoms: C_1  and  C_2
REMARK    2  A    between atoms: C_2  and  C_3
REMARK    3  A    between atoms: C_6  and  N_7
REMARK    4  A    between atoms: C_8  and  C_10
REMARK    5  A    between atoms: C_10  and  N_11
REMARK                            x       y       z     vdW  Elec       q    Type
REMARK                         _______ _______ _______ _____ _____    ______ ____
ROOT
ATOM      1  N   UNL     1     -42.140-161.099 309.561  0.00  0.00    +0.000 N 
ATOM      2  C   UNL     1     -42.147-162.452 309.857  0.00  0.00    +0.000 C 
ATOM      3  O   UNL     1     -43.167-163.125 309.697  0.00  0.00    +0.000 OA
ATOM      4  H   UNL     1     -43.022-160.826 309.137  0.00  0.00    +0.000 HD
ENDROOT
BRANCH   1   8
ATOM      5  C   UNL     1     -42.152-157.571 308.485  0.00  0.00    +0.000 C 
ATOM      6  C   UNL     1     -42.444-158.105 309.899  0.00  0.00    +0.000 C 
ATOM      7  C   UNL     1     -41.328-158.969 310.508  0.00  0.00    +0.000 C 
ATOM      8  C   UNL     1     -41.001-160.125 309.611  0.00  0.00    +0.000 C 
ATOM      9  C   UNL     1     -40.574-159.372 308.338  0.00  0.00    +0.000 C 
ATOM     10  C   UNL     1     -41.763-158.731 307.608  0.00  0.00    +0.000 C 
BRANCH   5  12
ATOM     11  C   UNL     1     -43.360-155.317 308.346  0.00  0.00    +0.000 C 
ATOM     12  C   UNL     1     -43.332-156.782 307.923  0.00  0.00    +0.000 C 
ENDBRANCH   5  12
ENDBRANCH   1   8
BRANCH   2  13
ATOM     13  C   UNL     1     -40.848-163.077 310.303  0.00  0.00    +0.000 C 
BRANCH  13  14
ATOM     14  N   UNL     1     -40.267-163.973 309.304  0.00  0.00    +0.000 N 
ATOM     15  C   UNL     1     -40.474-165.363 309.352  0.00  0.00    +0.000 A 
ATOM     16  O   UNL     1     -41.362-165.972 309.963  0.00  0.00    +0.000 OA
ATOM     17  N   UNL     1     -39.480-165.953 308.566  0.00  0.00    +0.000 N 
ATOM     18  C   UNL     1     -38.706-164.962 307.978  0.00  0.00    +0.000 A 
ATOM     19  C   UNL     1     -37.509-165.098 307.271  0.00  0.00    +0.000 A 
ATOM     20  C   UNL     1     -36.869-163.946 306.811  0.00  0.00    +0.000 A 
ATOM     21  C   UNL     1     -37.554-162.728 306.890  0.00  0.00    +0.000 A 
ATOM     22  C   UNL     1     -38.769-162.611 307.645  0.00  0.00    +0.000 A 
ATOM     23  C   UNL     1     -39.288-163.735 308.283  0.00  0.00    +0.000 A 
ATOM     24  H   UNL     1     -39.414-166.938 308.381  0.00  0.00    +0.000 HD
ENDBRANCH  13  14
ENDBRANCH   2  13
TORSDOF 4
ENDMDL
MODEL 6
REMARK VINA RESULT:    -8.913      1.588      2.152
REMARK INTER + INTRA:         -11.419
REMARK INTER:                 -10.597
REMARK INTRA:                  -0.822
REMARK UNBOUND:                -0.422
REMARK  Name = 
REMARK  5 active torsions:
REMARK  status: ('A' for Active; 'I' for Inactive)
REMARK    1  A    between atoms: C_1  and  C_2
REMARK    2  A    between atoms: C_2  and  C_3
REMARK    3  A    between atoms: C_6  and  N_7
REMARK    4  A    between atoms: C_8  and  C_10
REMARK    5  A    between atoms: C_10  and  N_11
REMARK                            x       y       z     vdW  Elec       q    Type
REMARK                         _______ _______ _______ _____ _____    ______ ____
ROOT
ATOM      1  N   UNL     1     -42.201-157.829 309.972  0.00  0.00    +0.000 N 
ATOM      2  C   UNL     1     -42.142-158.328 311.263  0.00  0.00    +0.000 C 
ATOM      3  O   UNL     1     -41.634-157.666 312.170  0.00  0.00    +0.000 OA
ATOM      4  H   UNL     1     -41.868-156.870 309.949  0.00  0.00    +0.000 HD
ENDROOT
BRANCH   1   8
ATOM      5  C   UNL     1     -43.042-156.131 306.808  0.00  0.00    +0.000 C 
ATOM      6  C   UNL     1     -41.735-156.873 307.137  0.00  0.00    +0.000 C 
ATOM      7  C   UNL     1     -41.914-158.336 307.573  0.00  0.00    +0.000 C 
ATOM      8  C   UNL     1     -42.834-158.430 308.753  0.00  0.00    +0.000 C 
ATOM      9  C   UNL     1     -44.108-157.804 308.157  0.00  0.00    +0.000 C 
ATOM     10  C   UNL     1     -43.984-156.285 307.972  0.00  0.00    +0.000 C 
BRANCH   5  12
ATOM     11  C   UNL     1     -43.250-154.280 305.049  0.00  0.00    +0.000 C 
ATOM     12  C   UNL     1     -42.788-154.669 306.449  0.00  0.00    +0.000 C 
ENDBRANCH   5  12
ENDBRANCH   1   8
BRANCH   2  13
ATOM     13  C   UNL     1     -42.786-159.667 311.525  0.00  0.00    +0.000 C 
BRANCH  13  14
ATOM     14  N   UNL     1     -41.847-160.785 311.436  0.00  0.00    +0.000 N 
ATOM     15  C   UNL     1     -41.069-161.183 312.537  0.00  0.00    +0.000 A 
ATOM     16  O   UNL     1     -41.266-160.925 313.732  0.00  0.00    +0.000 OA
ATOM     17  N   UNL     1     -40.009-161.945 312.037  0.00  0.00    +0.000 N 
ATOM     18  C   UNL     1     -40.150-162.086 310.663  0.00  0.00    +0.000 A 
ATOM     19  C   UNL     1     -39.235-162.608 309.744  0.00  0.00    +0.000 A 
ATOM     20  C   UNL     1     -39.570-162.601 308.390  0.00  0.00    +0.000 A 
ATOM     21  C   UNL     1     -40.882-162.272 308.031  0.00  0.00    +0.000 A 
ATOM     22  C   UNL     1     -41.793-161.714 308.989  0.00  0.00    +0.000 A 
ATOM     23  C   UNL     1     -41.372-161.525 310.304  0.00  0.00    +0.000 A 
ATOM     24  H   UNL     1     -39.321-162.401 312.607  0.00  0.00    +0.000 HD
ENDBRANCH  13  14
ENDBRANCH   2  13
TORSDOF 4
ENDMDL
MODEL 7
REMARK VINA RESULT:    -8.699      2.229      7.655
REMARK INTER + INTRA:         -11.155
REMARK INTER:                 -10.717
REMARK INTRA:                  -0.439
REMARK UNBOUND:                -0.422
REMARK  Name = 
REMARK  5 active torsions:
REMARK  status: ('A' for Active; 'I' for Inactive)
REMARK    1  A    between atoms: C_1  and  C_2
REMARK    2  A    between atoms: C_2  and  C_3
REMARK    3  A    between atoms: C_6  and  N_7
REMARK    4  A    between atoms: C_8  and  C_10
REMARK    5  A    between atoms: C_10  and  N_11
REMARK                            x       y       z     vdW  Elec       q    Type
REMARK                         _______ _______ _______ _____ _____    ______ ____
ROOT
ATOM      1  N   UNL     1     -42.082-158.822 309.867  0.00  0.00    +0.000 N 
ATOM      2  C   UNL     1     -42.356-157.959 308.819  0.00  0.00    +0.000 C 
ATOM      3  O   UNL     1     -42.809-156.834 309.033  0.00  0.00    +0.000 OA
ATOM      4  H   UNL     1     -42.223-158.352 310.757  0.00  0.00    +0.000 HD
ENDROOT
BRANCH   1   8
ATOM      5  C   UNL     1     -41.767-161.215 312.656  0.00  0.00    +0.000 C 
ATOM      6  C   UNL     1     -42.916-161.135 311.635  0.00  0.00    +0.000 C 
ATOM      7  C   UNL     1     -42.483-161.240 310.164  0.00  0.00    +0.000 C 
ATOM      8  C   UNL     1     -41.467-160.188 309.832  0.00  0.00    +0.000 C 
ATOM      9  C   UNL     1     -40.355-160.559 310.831  0.00  0.00    +0.000 C 
ATOM     10  C   UNL     1     -40.722-160.199 312.278  0.00  0.00    +0.000 C 
BRANCH   5  12
ATOM     11  C   UNL     1     -43.633-160.365 314.190  0.00  0.00    +0.000 C 
ATOM     12  C   UNL     1     -42.268-161.036 314.087  0.00  0.00    +0.000 C 
ENDBRANCH   5  12
ENDBRANCH   1   8
BRANCH   2  13
ATOM     13  C   UNL     1     -42.006-158.420 307.425  0.00  0.00    +0.000 C 
BRANCH  13  14
ATOM     14  N   UNL     1     -42.341-157.439 306.393  0.00  0.00    +0.000 N 
ATOM     15  C   UNL     1     -41.347-156.704 305.725  0.00  0.00    +0.000 A 
ATOM     16  O   UNL     1     -40.140-156.969 305.642  0.00  0.00    +0.000 OA
ATOM     17  N   UNL     1     -41.973-155.594 305.150  0.00  0.00    +0.000 N 
ATOM     18  C   UNL     1     -43.340-155.660 305.387  0.00  0.00    +0.000 A 
ATOM     19  C   UNL     1     -44.311-154.683 305.156  0.00  0.00    +0.000 A 
ATOM     20  C   UNL     1     -45.629-154.949 305.526  0.00  0.00    +0.000 A 
ATOM     21  C   UNL     1     -45.961-156.252 305.914  0.00  0.00    +0.000 A 
ATOM     22  C   UNL     1     -44.941-157.229 306.170  0.00  0.00    +0.000 A 
ATOM     23  C   UNL     1     -43.603-156.881 306.001  0.00  0.00    +0.000 A 
ATOM     24  H   UNL     1     -41.509-154.919 304.570  0.00  0.00    +0.000 HD
ENDBRANCH  13  14
ENDBRANCH   2  13
TORSDOF 4
ENDMDL
MODEL 8
REMARK VINA RESULT:    -8.607      1.881      7.711
REMARK INTER + INTRA:         -11.041
REMARK INTER:                 -10.565
REMARK INTRA:                  -0.475
REMARK UNBOUND:                -0.422
REMARK  Name = 
REMARK  5 active torsions:
REMARK  status: ('A' for Active; 'I' for Inactive)
REMARK    1  A    between atoms: C_1  and  C_2
REMARK    2  A    between atoms: C_2  and  C_3
REMARK    3  A    between atoms: C_6  and  N_7
REMARK    4  A    between atoms: C_8  and  C_10
REMARK    5  A    between atoms: C_10  and  N_11
REMARK                            x       y       z     vdW  Elec       q    Type
REMARK                         _______ _______ _______ _____ _____    ______ ____
ROOT
ATOM      1  N   UNL     1     -41.693-158.565 309.603  0.00  0.00    +0.000 N 
ATOM      2  C   UNL     1     -42.428-158.311 308.457  0.00  0.00    +0.000 C 
ATOM      3  O   UNL     1     -41.939-158.503 307.342  0.00  0.00    +0.000 OA
ATOM      4  H   UNL     1     -40.802-158.990 309.364  0.00  0.00    +0.000 HD
ENDROOT
BRANCH   1   8
ATOM      5  C   UNL     1     -41.400-161.162 312.206  0.00  0.00    +0.000 C 
ATOM      6  C   UNL     1     -40.379-160.053 311.889  0.00  0.00    +0.000 C 
ATOM      7  C   UNL     1     -40.938-158.623 311.953  0.00  0.00    +0.000 C 
ATOM      8  C   UNL     1     -42.116-158.471 311.038  0.00  0.00    +0.000 C 
ATOM      9  C   UNL     1     -43.062-159.530 311.634  0.00  0.00    +0.000 C 
ATOM     10  C   UNL     1     -42.606-160.964 311.328  0.00  0.00    +0.000 C 
BRANCH   5  12
ATOM     11  C   UNL     1     -41.387-163.379 310.923  0.00  0.00    +0.000 C 
ATOM     12  C   UNL     1     -40.788-162.553 312.056  0.00  0.00    +0.000 C 
ENDBRANCH   5  12
ENDBRANCH   1   8
BRANCH   2  13
ATOM     13  C   UNL     1     -43.860-157.868 308.628  0.00  0.00    +0.000 C 
BRANCH  13  14
ATOM     14  N   UNL     1     -44.401-157.199 307.445  0.00  0.00    +0.000 N 
ATOM     15  C   UNL     1     -45.424-157.778 306.674  0.00  0.00    +0.000 A 
ATOM     16  O   UNL     1     -46.203-158.680 307.011  0.00  0.00    +0.000 OA
ATOM     17  N   UNL     1     -45.412-157.139 305.431  0.00  0.00    +0.000 N 
ATOM     18  C   UNL     1     -44.455-156.134 305.437  0.00  0.00    +0.000 A 
ATOM     19  C   UNL     1     -43.983-155.375 304.362  0.00  0.00    +0.000 A 
ATOM     20  C   UNL     1     -42.968-154.448 304.593  0.00  0.00    +0.000 A 
ATOM     21  C   UNL     1     -42.614-154.165 305.917  0.00  0.00    +0.000 A 
ATOM     22  C   UNL     1     -43.092-154.976 307.000  0.00  0.00    +0.000 A 
ATOM     23  C   UNL     1     -43.946-156.043 306.729  0.00  0.00    +0.000 A 
ATOM     24  H   UNL     1     -46.070-157.320 304.695  0.00  0.00    +0.000 HD
ENDBRANCH  13  14
ENDBRANCH   2  13
TORSDOF 4
ENDMDL
MODEL 9
REMARK VINA RESULT:    -8.588      4.011      6.222
REMARK INTER + INTRA:         -11.017
REMARK INTER:                 -10.634
REMARK INTRA:                  -0.383
REMARK UNBOUND:                -0.422
REMARK  Name = 
REMARK  5 active torsions:
REMARK  status: ('A' for Active; 'I' for Inactive)
REMARK    1  A    between atoms: C_1  and  C_2
REMARK    2  A    between atoms: C_2  and  C_3
REMARK    3  A    between atoms: C_6  and  N_7
REMARK    4  A    between atoms: C_8  and  C_10
REMARK    5  A    between atoms: C_10  and  N_11
REMARK                            x       y       z     vdW  Elec       q    Type
REMARK                         _______ _______ _______ _____ _____    ______ ____
ROOT
ATOM      1  N   UNL     1     -42.141-161.453 309.676  0.00  0.00    +0.000 N 
ATOM      2  C   UNL     1     -42.202-162.832 309.788  0.00  0.00    +0.000 C 
ATOM      3  O   UNL     1     -43.224-163.443 309.470  0.00  0.00    +0.000 OA
ATOM      4  H   UNL     1     -42.982-161.097 309.233  0.00  0.00    +0.000 HD
ENDROOT
BRANCH   1   8
ATOM      5  C   UNL     1     -41.916-158.784 312.211  0.00  0.00    +0.000 C 
ATOM      6  C   UNL     1     -41.464-160.247 312.370  0.00  0.00    +0.000 C 
ATOM      7  C   UNL     1     -40.448-160.727 311.320  0.00  0.00    +0.000 C 
ATOM      8  C   UNL     1     -40.985-160.534 309.934  0.00  0.00    +0.000 C 
ATOM      9  C   UNL     1     -41.198-159.008 309.934  0.00  0.00    +0.000 C 
ATOM     10  C   UNL     1     -42.394-158.583 310.798  0.00  0.00    +0.000 C 
BRANCH   5  12
ATOM     11  C   UNL     1     -43.856-159.563 313.691  0.00  0.00    +0.000 C 
ATOM     12  C   UNL     1     -42.972-158.403 313.246  0.00  0.00    +0.000 C 
ENDBRANCH   5  12
ENDBRANCH   1   8
BRANCH   2  13
ATOM     13  C   UNL     1     -40.955-163.554 310.236  0.00  0.00    +0.000 C 
BRANCH  13  14
ATOM     14  N   UNL     1     -40.321-164.325 309.166  0.00  0.00    +0.000 N 
ATOM     15  C   UNL     1     -40.477-165.719 309.072  0.00  0.00    +0.000 A 
ATOM     16  O   UNL     1     -41.355-166.417 309.598  0.00  0.00    +0.000 OA
ATOM     17  N   UNL     1     -39.446-166.193 308.255  0.00  0.00    +0.000 N 
ATOM     18  C   UNL     1     -38.698-165.121 307.786  0.00  0.00    +0.000 A 
ATOM     19  C   UNL     1     -37.483-165.143 307.098  0.00  0.00    +0.000 A 
ATOM     20  C   UNL     1     -36.877-163.931 306.770  0.00  0.00    +0.000 A 
ATOM     21  C   UNL     1     -37.608-162.751 306.953  0.00  0.00    +0.000 A 
ATOM     22  C   UNL     1     -38.842-162.753 307.687  0.00  0.00    +0.000 A 
ATOM     23  C   UNL     1     -39.332-163.952 308.198  0.00  0.00    +0.000 A 
ATOM     24  H   UNL     1     -39.341-167.151 307.975  0.00  0.00    +0.000 HD
ENDBRANCH  13  14
ENDBRANCH   2  13
TORSDOF 4
ENDMDL
MODEL 10
REMARK VINA RESULT:    -8.528      2.209      3.453
REMARK INTER + INTRA:         -10.943
REMARK INTER:                 -10.030
REMARK INTRA:                  -0.913
REMARK UNBOUND:                -0.422
REMARK  Name = 
REMARK  5 active torsions:
REMARK  status: ('A' for Active; 'I' for Inactive)
REMARK    1  A    between atoms: C_1  and  C_2
REMARK    2  A    between atoms: C_2  and  C_3
REMARK    3  A    between atoms: C_6  and  N_7
REMARK    4  A    between atoms: C_8  and  C_10
REMARK    5  A    between atoms: C_10  and  N_11
REMARK                            x       y       z     vdW  Elec       q    Type
REMARK                         _______ _______ _______ _____ _____    ______ ____
ROOT
ATOM      1  N   UNL     1     -41.326-159.927 307.370  0.00  0.00    +0.000 N 
ATOM      2  C   UNL     1     -40.804-161.066 307.961  0.00  0.00    +0.000 C 
ATOM      3  O   UNL     1     -41.067-162.183 307.512  0.00  0.00    +0.000 OA
ATOM      4  H   UNL     1     -41.834-160.169 306.524  0.00  0.00    +0.000 HD
ENDROOT
BRANCH   1   8
ATOM      5  C   UNL     1     -43.151-156.978 306.115  0.00  0.00    +0.000 C 
ATOM      6  C   UNL     1     -43.451-157.770 307.401  0.00  0.00    +0.000 C 
ATOM      7  C   UNL     1     -42.272-157.882 308.381  0.00  0.00    +0.000 C 
ATOM      8  C   UNL     1     -41.077-158.487 307.707  0.00  0.00    +0.000 C 
ATOM      9  C   UNL     1     -40.849-157.461 306.582  0.00  0.00    +0.000 C 
ATOM     10  C   UNL     1     -41.913-157.551 305.479  0.00  0.00    +0.000 C 
BRANCH   5  12
ATOM     11  C   UNL     1     -45.657-157.409 305.807  0.00  0.00    +0.000 C 
ATOM     12  C   UNL     1     -44.347-156.968 305.165  0.00  0.00    +0.000 C 
ENDBRANCH   5  12
ENDBRANCH   1   8
BRANCH   2  13
ATOM     13  C   UNL     1     -39.849-160.880 309.114  0.00  0.00    +0.000 C 
BRANCH  13  14
ATOM     14  N   UNL     1     -40.483-161.058 310.420  0.00  0.00    +0.000 N 
ATOM     15  C   UNL     1     -40.814-162.333 310.911  0.00  0.00    +0.000 A 
ATOM     16  O   UNL     1     -40.368-163.425 310.535  0.00  0.00    +0.000 OA
ATOM     17  N   UNL     1     -41.757-162.149 311.927  0.00  0.00    +0.000 N 
ATOM     18  C   UNL     1     -41.965-160.791 312.124  0.00  0.00    +0.000 A 
ATOM     19  C   UNL     1     -42.942-160.165 312.902  0.00  0.00    +0.000 A 
ATOM     20  C   UNL     1     -42.999-158.771 312.909  0.00  0.00    +0.000 A 
ATOM     21  C   UNL     1     -41.952-158.059 312.314  0.00  0.00    +0.000 A 
ATOM     22  C   UNL     1     -40.975-158.725 311.499  0.00  0.00    +0.000 A 
ATOM     23  C   UNL     1     -41.057-160.104 311.324  0.00  0.00    +0.000 A 
ATOM     24  H   UNL     1     -42.135-162.890 312.488  0.00  0.00    +0.000 HD
ENDBRANCH  13  14
ENDBRANCH   2  13
TORSDOF 4
ENDMDL
