MODEL 1
REMARK VINA RESULT:    -9.102      0.000      0.000
REMARK INTER + INTRA:         -12.866
REMARK INTER:                 -12.295
REMARK INTRA:                  -0.571
REMARK UNBOUND:                -0.571
REMARK  Name = 
REMARK  7 active torsions:
REMARK  status: ('A' for Active; 'I' for Inactive)
REMARK    1  A    between atoms: C_1  and  C_2
REMARK    2  A    between atoms: C_2  and  O_3
REMARK    3  A    between atoms: O_3  and  C_4
REMARK    4  A    between atoms: C_6  and  C_7
REMARK    5  A    between atoms: C_7  and  N_8
REMARK    6  A    between atoms: C_9  and  C_11
REMARK    7  A    between atoms: C_14  and  C_15
REMARK                            x       y       z     vdW  Elec       q    Type
REMARK                         _______ _______ _______ _____ _____    ______ ____
ROOT
ATOM      1  N   UNL     1     -41.775-158.576 308.029  0.00  0.00    +0.000 N 
ATOM      2  C   UNL     1     -40.923-159.498 308.583  0.00  0.00    +0.000 C 
ATOM      3  O   UNL     1     -40.006-159.965 307.918  0.00  0.00    +0.000 OA
ATOM      4  H   UNL     1     -41.553-158.321 307.071  0.00  0.00    +0.000 HD
ENDROOT
BRANCH   2   5
ATOM      5  C   UNL     1     -41.132-159.949 309.979  0.00  0.00    +0.000 A 
ATOM      6  C   UNL     1     -40.683-159.186 311.069  0.00  0.00    +0.000 A 
ATOM      7  C   UNL     1     -40.910-159.614 312.378  0.00  0.00    +0.000 A 
ATOM      8  C   UNL     1     -41.549-160.835 312.609  0.00  0.00    +0.000 A 
ATOM      9  C   UNL     1     -42.024-161.585 311.530  0.00  0.00    +0.000 A 
ATOM     10  C   UNL     1     -41.822-161.136 310.224  0.00  0.00    +0.000 A 
ATOM     11  F   UNL     1     -42.250-161.909 309.216  0.00  0.00    +0.000 F 
BRANCH   8  12
ATOM     12  C   UNL     1     -41.635-161.359 313.944  0.00  0.00    +0.000 C 
ATOM     13  N   UNL     1     -41.646-161.804 315.009  0.00  0.00    +0.000 NA
ENDBRANCH   8  12
ENDBRANCH   2   5
BRANCH   1  14
ATOM     14  C   UNL     1     -42.822-157.846 308.689  0.00  0.00    +0.000 C 
BRANCH  14  17
ATOM     15  C   UNL     1     -45.463-156.523 306.385  0.00  0.00    +0.000 A 
ATOM     16  C   UNL     1     -44.646-157.386 307.086  0.00  0.00    +0.000 A 
ATOM     17  C   UNL     1     -43.540-156.915 307.774  0.00  0.00    +0.000 A 
ATOM     18  C   UNL     1     -43.191-155.583 307.630  0.00  0.00    +0.000 A 
ATOM     19  C   UNL     1     -43.986-154.800 306.809  0.00  0.00    +0.000 A 
ATOM     20  N   UNL     1     -45.125-155.231 306.206  0.00  0.00    +0.000 NA
BRANCH  15  21
ATOM     21  O   UNL     1     -46.568-156.972 305.706  0.00  0.00    +0.000 OA
BRANCH  21  23
ATOM     22  C   UNL     1     -47.298-159.322 305.236  0.00  0.00    +0.000 C 
ATOM     23  C   UNL     1     -46.397-158.144 304.887  0.00  0.00    +0.000 C 
ENDBRANCH  21  23
ENDBRANCH  15  21
ENDBRANCH  14  17
ENDBRANCH   1  14
TORSDOF 6
ENDMDL
MODEL 2
REMARK VINA RESULT:    -9.084      2.871      4.447
REMARK INTER + INTRA:         -12.841
REMARK INTER:                 -11.953
REMARK INTRA:                  -0.888
REMARK UNBOUND:                -0.571
REMARK  Name = 
REMARK  7 active torsions:
REMARK  status: ('A' for Active; 'I' for Inactive)
REMARK    1  A    between atoms: C_1  and  C_2
REMARK    2  A    between atoms: C_2  and  O_3
REMARK    3  A    between atoms: O_3  and  C_4
REMARK    4  A    between atoms: C_6  and  C_7
REMARK    5  A    between atoms: C_7  and  N_8
REMARK    6  A    between atoms: C_9  and  C_11
REMARK    7  A    between atoms: C_14  and  C_15
REMARK                            x       y       z     vdW  Elec       q    Type
REMARK                         _______ _______ _______ _____ _____    ______ ____
ROOT
ATOM      1  N   UNL     1     -42.437-159.041 312.194  0.00  0.00    +0.000 N 
ATOM      2  C   UNL     1     -43.040-160.273 312.219  0.00  0.00    +0.000 C 
ATOM      3  O   UNL     1     -44.067-160.443 312.865  0.00  0.00    +0.000 OA
ATOM      4  H   UNL     1     -42.929-158.322 312.717  0.00  0.00    +0.000 HD
ENDROOT
BRANCH   2   5
ATOM      5  C   UNL     1     -42.427-161.408 311.488  0.00  0.00    +0.000 A 
ATOM      6  C   UNL     1     -42.960-161.867 310.273  0.00  0.00    +0.000 A 
ATOM      7  C   UNL     1     -42.356-162.921 309.585  0.00  0.00    +0.000 A 
ATOM      8  C   UNL     1     -41.239-163.557 310.131  0.00  0.00    +0.000 A 
ATOM      9  C   UNL     1     -40.686-163.087 311.324  0.00  0.00    +0.000 A 
ATOM     10  C   UNL     1     -41.276-162.012 311.992  0.00  0.00    +0.000 A 
ATOM     11  F   UNL     1     -40.743-161.623 313.159  0.00  0.00    +0.000 F 
BRANCH   8  12
ATOM     12  C   UNL     1     -40.717-164.746 309.515  0.00  0.00    +0.000 C 
ATOM     13  N   UNL     1     -40.286-165.723 309.078  0.00  0.00    +0.000 NA
ENDBRANCH   8  12
ENDBRANCH   2   5
BRANCH   1  14
ATOM     14  C   UNL     1     -41.305-158.637 311.407  0.00  0.00    +0.000 C 
BRANCH  14  17
ATOM     15  C   UNL     1     -42.866-157.573 308.172  0.00  0.00    +0.000 A 
ATOM     16  C   UNL     1     -42.666-157.812 309.517  0.00  0.00    +0.000 A 
ATOM     17  C   UNL     1     -41.605-158.590 309.948  0.00  0.00    +0.000 A 
ATOM     18  C   UNL     1     -40.832-159.237 308.999  0.00  0.00    +0.000 A 
ATOM     19  C   UNL     1     -41.167-159.051 307.668  0.00  0.00    +0.000 A 
ATOM     20  N   UNL     1     -42.147-158.216 307.233  0.00  0.00    +0.000 NA
BRANCH  15  21
ATOM     21  O   UNL     1     -43.907-156.796 307.728  0.00  0.00    +0.000 OA
BRANCH  21  23
ATOM     22  C   UNL     1     -42.352-154.840 307.540  0.00  0.00    +0.000 C 
ATOM     23  C   UNL     1     -43.749-155.369 307.841  0.00  0.00    +0.000 C 
ENDBRANCH  21  23
ENDBRANCH  15  21
ENDBRANCH  14  17
ENDBRANCH   1  14
TORSDOF 6
ENDMDL
MODEL 3
REMARK VINA RESULT:    -9.006      2.560      3.076
REMARK INTER + INTRA:         -12.735
REMARK INTER:                 -12.202
REMARK INTRA:                  -0.533
REMARK UNBOUND:                -0.571
REMARK  Name = 
REMARK  7 active torsions:
REMARK  status: ('A' for Active; 'I' for Inactive)
REMARK    1  A    between atoms: C_1  and  C_2
REMARK    2  A    between atoms: C_2  and  O_3
REMARK    3  A    between atoms: O_3  and  C_4
REMARK    4  A    between atoms: C_6  and  C_7
REMARK    5  A    between atoms: C_7  and  N_8
REMARK    6  A    between atoms: C_9  and  C_11
REMARK    7  A    between atoms: C_14  and  C_15
REMARK                            x       y       z     vdW  Elec       q    Type
REMARK                         _______ _______ _______ _____ _____    ______ ____
ROOT
ATOM      1  N   UNL     1     -42.501-158.429 310.582  0.00  0.00    +0.000 N 
ATOM      2  C   UNL     1     -42.472-159.517 311.418  0.00  0.00    +0.000 C 
ATOM      3  O   UNL     1     -42.790-159.397 312.596  0.00  0.00    +0.000 OA
ATOM      4  H   UNL     1     -42.826-157.571 311.020  0.00  0.00    +0.000 HD
ENDROOT
BRANCH   2   5
ATOM      5  C   UNL     1     -42.025-160.832 310.901  0.00  0.00    +0.000 A 
ATOM      6  C   UNL     1     -42.859-161.620 310.092  0.00  0.00    +0.000 A 
ATOM      7  C   UNL     1     -42.413-162.846 309.594  0.00  0.00    +0.000 A 
ATOM      8  C   UNL     1     -41.144-163.316 309.938  0.00  0.00    +0.000 A 
ATOM      9  C   UNL     1     -40.298-162.523 310.717  0.00  0.00    +0.000 A 
ATOM     10  C   UNL     1     -40.738-161.284 311.188  0.00  0.00    +0.000 A 
ATOM     11  F   UNL     1     -39.914-160.577 311.974  0.00  0.00    +0.000 F 
BRANCH   8  12
ATOM     12  C   UNL     1     -40.745-164.646 309.568  0.00  0.00    +0.000 C 
ATOM     13  N   UNL     1     -40.463-165.709 309.219  0.00  0.00    +0.000 NA
ENDBRANCH   8  12
ENDBRANCH   2   5
BRANCH   1  14
ATOM     14  C   UNL     1     -42.275-158.411 309.163  0.00  0.00    +0.000 C 
BRANCH  14  17
ATOM     15  C   UNL     1     -45.055-156.881 307.173  0.00  0.00    +0.000 A 
ATOM     16  C   UNL     1     -44.152-157.793 307.680  0.00  0.00    +0.000 A 
ATOM     17  C   UNL     1     -43.089-157.378 308.463  0.00  0.00    +0.000 A 
ATOM     18  C   UNL     1     -42.870-156.019 308.612  0.00  0.00    +0.000 A 
ATOM     19  C   UNL     1     -43.745-155.157 307.972  0.00  0.00    +0.000 A 
ATOM     20  N   UNL     1     -44.844-155.555 307.279  0.00  0.00    +0.000 NA
BRANCH  15  21
ATOM     21  O   UNL     1     -46.120-157.277 306.402  0.00  0.00    +0.000 OA
BRANCH  21  23
ATOM     22  C   UNL     1     -46.794-158.633 304.406  0.00  0.00    +0.000 C 
ATOM     23  C   UNL     1     -45.840-157.625 305.034  0.00  0.00    +0.000 C 
ENDBRANCH  21  23
ENDBRANCH  15  21
ENDBRANCH  14  17
ENDBRANCH   1  14
TORSDOF 6
ENDMDL
MODEL 4
REMARK VINA RESULT:    -8.903      2.093      2.574
REMARK INTER + INTRA:         -12.596
REMARK INTER:                 -11.689
REMARK INTRA:                  -0.908
REMARK UNBOUND:                -0.571
REMARK  Name = 
REMARK  7 active torsions:
REMARK  status: ('A' for Active; 'I' for Inactive)
REMARK    1  A    between atoms: C_1  and  C_2
REMARK    2  A    between atoms: C_2  and  O_3
REMARK    3  A    between atoms: O_3  and  C_4
REMARK    4  A    between atoms: C_6  and  C_7
REMARK    5  A    between atoms: C_7  and  N_8
REMARK    6  A    between atoms: C_9  and  C_11
REMARK    7  A    between atoms: C_14  and  C_15
REMARK                            x       y       z     vdW  Elec       q    Type
REMARK                         _______ _______ _______ _____ _____    ______ ____
ROOT
ATOM      1  N   UNL     1     -40.474-160.461 307.671  0.00  0.00    +0.000 N 
ATOM      2  C   UNL     1     -40.570-161.633 308.378  0.00  0.00    +0.000 C 
ATOM      3  O   UNL     1     -40.499-162.710 307.797  0.00  0.00    +0.000 OA
ATOM      4  H   UNL     1     -40.318-160.583 306.674  0.00  0.00    +0.000 HD
ENDROOT
BRANCH   2   5
ATOM      5  C   UNL     1     -40.790-161.594 309.844  0.00  0.00    +0.000 A 
ATOM      6  C   UNL     1     -39.723-161.733 310.746  0.00  0.00    +0.000 A 
ATOM      7  C   UNL     1     -39.944-161.670 312.123  0.00  0.00    +0.000 A 
ATOM      8  C   UNL     1     -41.243-161.512 312.611  0.00  0.00    +0.000 A 
ATOM      9  C   UNL     1     -42.305-161.342 311.719  0.00  0.00    +0.000 A 
ATOM     10  C   UNL     1     -42.073-161.376 310.343  0.00  0.00    +0.000 A 
ATOM     11  F   UNL     1     -43.126-161.259 309.521  0.00  0.00    +0.000 F 
BRANCH   8  12
ATOM     12  C   UNL     1     -41.497-161.614 314.022  0.00  0.00    +0.000 C 
ATOM     13  N   UNL     1     -41.764-161.699 315.142  0.00  0.00    +0.000 NA
ENDBRANCH   8  12
ENDBRANCH   2   5
BRANCH   1  14
ATOM     14  C   UNL     1     -40.420-159.125 308.197  0.00  0.00    +0.000 C 
BRANCH  14  17
ATOM     15  C   UNL     1     -42.924-157.234 306.150  0.00  0.00    +0.000 A 
ATOM     16  C   UNL     1     -41.745-157.809 306.577  0.00  0.00    +0.000 A 
ATOM     17  C   UNL     1     -41.630-158.323 307.858  0.00  0.00    +0.000 A 
ATOM     18  C   UNL     1     -42.674-158.123 308.746  0.00  0.00    +0.000 A 
ATOM     19  C   UNL     1     -43.779-157.428 308.285  0.00  0.00    +0.000 A 
ATOM     20  N   UNL     1     -43.939-157.002 307.004  0.00  0.00    +0.000 NA
BRANCH  15  21
ATOM     21  O   UNL     1     -43.058-156.729 304.881  0.00  0.00    +0.000 OA
BRANCH  21  23
ATOM     22  C   UNL     1     -43.959-154.399 304.693  0.00  0.00    +0.000 C 
ATOM     23  C   UNL     1     -44.208-155.900 304.628  0.00  0.00    +0.000 C 
ENDBRANCH  21  23
ENDBRANCH  15  21
ENDBRANCH  14  17
ENDBRANCH   1  14
TORSDOF 6
ENDMDL
MODEL 5
REMARK VINA RESULT:    -8.820      3.654      7.192
REMARK INTER + INTRA:         -12.484
REMARK INTER:                 -11.445
REMARK INTRA:                  -1.039
REMARK UNBOUND:                -0.571
REMARK  Name = 
REMARK  7 active torsions:
REMARK  status: ('A' for Active; 'I' for Inactive)
REMARK    1  A    between atoms: C_1  and  C_2
REMARK    2  A    between atoms: C_2  and  O_3
REMARK    3  A    between atoms: O_3  and  C_4
REMARK    4  A    between atoms: C_6  and  C_7
REMARK    5  A    between atoms: C_7  and  N_8
REMARK    6  A    between atoms: C_9  and  C_11
REMARK    7  A    between atoms: C_14  and  C_15
REMARK                            x       y       z     vdW  Elec       q    Type
REMARK                         _______ _______ _______ _____ _____    ______ ____
ROOT
ATOM      1  N   UNL     1     -41.708-158.677 310.392  0.00  0.00    +0.000 N 
ATOM      2  C   UNL     1     -41.806-159.355 309.203  0.00  0.00    +0.000 C 
ATOM      3  O   UNL     1     -42.362-158.834 308.242  0.00  0.00    +0.000 OA
ATOM      4  H   UNL     1     -42.098-157.739 310.375  0.00  0.00    +0.000 HD
ENDROOT
BRANCH   2   5
ATOM      5  C   UNL     1     -41.267-160.731 309.092  0.00  0.00    +0.000 A 
ATOM      6  C   UNL     1     -40.044-160.986 308.452  0.00  0.00    +0.000 A 
ATOM      7  C   UNL     1     -39.539-162.285 308.378  0.00  0.00    +0.000 A 
ATOM      8  C   UNL     1     -40.275-163.349 308.903  0.00  0.00    +0.000 A 
ATOM      9  C   UNL     1     -41.479-163.098 309.568  0.00  0.00    +0.000 A 
ATOM     10  C   UNL     1     -41.964-161.793 309.666  0.00  0.00    +0.000 A 
ATOM     11  F   UNL     1     -43.146-161.601 310.268  0.00  0.00    +0.000 F 
BRANCH   8  12
ATOM     12  C   UNL     1     -39.843-164.701 308.682  0.00  0.00    +0.000 C 
ATOM     13  N   UNL     1     -39.473-165.769 308.449  0.00  0.00    +0.000 NA
ENDBRANCH   8  12
ENDBRANCH   2   5
BRANCH   1  14
ATOM     14  C   UNL     1     -40.997-159.083 311.573  0.00  0.00    +0.000 C 
BRANCH  14  17
ATOM     15  C   UNL     1     -42.082-161.208 314.461  0.00  0.00    +0.000 A 
ATOM     16  C   UNL     1     -41.377-160.732 313.374  0.00  0.00    +0.000 A 
ATOM     17  C   UNL     1     -41.885-159.707 312.593  0.00  0.00    +0.000 A 
ATOM     18  C   UNL     1     -43.175-159.267 312.840  0.00  0.00    +0.000 A 
ATOM     19  C   UNL     1     -43.872-159.877 313.869  0.00  0.00    +0.000 A 
ATOM     20  N   UNL     1     -43.348-160.817 314.700  0.00  0.00    +0.000 NA
BRANCH  15  21
ATOM     21  O   UNL     1     -41.588-162.216 315.251  0.00  0.00    +0.000 OA
BRANCH  21  23
ATOM     22  C   UNL     1     -40.909-162.309 317.661  0.00  0.00    +0.000 C 
ATOM     23  C   UNL     1     -42.023-162.240 316.624  0.00  0.00    +0.000 C 
ENDBRANCH  21  23
ENDBRANCH  15  21
ENDBRANCH  14  17
ENDBRANCH   1  14
TORSDOF 6
ENDMDL
MODEL 6
REMARK VINA RESULT:    -8.767      3.511      7.650
REMARK INTER + INTRA:         -12.413
REMARK INTER:                 -11.656
REMARK INTRA:                  -0.757
REMARK UNBOUND:                -0.571
REMARK  Name = 
REMARK  7 active torsions:
REMARK  status: ('A' for Active; 'I' for Inactive)
REMARK    1  A    between atoms: C_1  and  C_2
REMARK    2  A    between atoms: C_2  and  O_3
REMARK    3  A    between atoms: O_3  and  C_4
REMARK    4  A    between atoms: C_6  and  C_7
REMARK    5  A    between atoms: C_7  and  N_8
REMARK    6  A    between atoms: C_9  and  C_11
REMARK    7  A    between atoms: C_14  and  C_15
REMARK                            x       y       z     vdW  Elec       q    Type
REMARK                         _______ _______ _______ _____ _____    ______ ____
ROOT
ATOM      1  N   UNL     1     -41.605-160.954 310.735  0.00  0.00    +0.000 N 
ATOM      2  C   UNL     1     -41.240-159.642 310.567  0.00  0.00    +0.000 C 
ATOM      3  O   UNL     1     -40.590-159.069 311.433  0.00  0.00    +0.000 OA
ATOM      4  H   UNL     1     -41.269-161.377 311.596  0.00  0.00    +0.000 HD
ENDROOT
BRANCH   2   5
ATOM      5  C   UNL     1     -41.660-158.911 309.349  0.00  0.00    +0.000 A 
ATOM      6  C   UNL     1     -42.784-158.070 309.354  0.00  0.00    +0.000 A 
ATOM      7  C   UNL     1     -43.153-157.369 308.204  0.00  0.00    +0.000 A 
ATOM      8  C   UNL     1     -42.426-157.539 307.024  0.00  0.00    +0.000 A 
ATOM      9  C   UNL     1     -41.289-158.351 307.019  0.00  0.00    +0.000 A 
ATOM     10  C   UNL     1     -40.907-159.025 308.181  0.00  0.00    +0.000 A 
ATOM     11  F   UNL     1     -39.840-159.833 308.122  0.00  0.00    +0.000 F 
BRANCH   8  12
ATOM     12  C   UNL     1     -42.897-156.955 305.799  0.00  0.00    +0.000 C 
ATOM     13  N   UNL     1     -43.240-156.434 304.827  0.00  0.00    +0.000 NA
ENDBRANCH   8  12
ENDBRANCH   2   5
BRANCH   1  14
ATOM     14  C   UNL     1     -42.261-161.808 309.783  0.00  0.00    +0.000 C 
BRANCH  14  17
ATOM     15  C   UNL     1     -39.490-163.779 308.211  0.00  0.00    +0.000 A 
ATOM     16  C   UNL     1     -40.415-162.786 308.463  0.00  0.00    +0.000 A 
ATOM     17  C   UNL     1     -41.428-162.978 309.388  0.00  0.00    +0.000 A 
ATOM     18  C   UNL     1     -41.578-164.233 309.951  0.00  0.00    +0.000 A 
ATOM     19  C   UNL     1     -40.689-165.220 309.559  0.00  0.00    +0.000 A 
ATOM     20  N   UNL     1     -39.635-165.016 308.724  0.00  0.00    +0.000 NA
BRANCH  15  21
ATOM     21  O   UNL     1     -38.474-163.601 307.306  0.00  0.00    +0.000 OA
BRANCH  21  23
ATOM     22  C   UNL     1     -38.101-165.456 305.663  0.00  0.00    +0.000 C 
ATOM     23  C   UNL     1     -37.700-164.765 306.960  0.00  0.00    +0.000 C 
ENDBRANCH  21  23
ENDBRANCH  15  21
ENDBRANCH  14  17
ENDBRANCH   1  14
TORSDOF 6
ENDMDL
MODEL 7
REMARK VINA RESULT:    -8.613      3.886      5.140
REMARK INTER + INTRA:         -12.205
REMARK INTER:                 -11.973
REMARK INTRA:                  -0.232
REMARK UNBOUND:                -0.571
REMARK  Name = 
REMARK  7 active torsions:
REMARK  status: ('A' for Active; 'I' for Inactive)
REMARK    1  A    between atoms: C_1  and  C_2
REMARK    2  A    between atoms: C_2  and  O_3
REMARK    3  A    between atoms: O_3  and  C_4
REMARK    4  A    between atoms: C_6  and  C_7
REMARK    5  A    between atoms: C_7  and  N_8
REMARK    6  A    between atoms: C_9  and  C_11
REMARK    7  A    between atoms: C_14  and  C_15
REMARK                            x       y       z     vdW  Elec       q    Type
REMARK                         _______ _______ _______ _____ _____    ______ ____
ROOT
ATOM      1  N   UNL     1     -40.574-160.746 309.836  0.00  0.00    +0.000 N 
ATOM      2  C   UNL     1     -40.003-161.902 310.305  0.00  0.00    +0.000 C 
ATOM      3  O   UNL     1     -39.750-162.024 311.497  0.00  0.00    +0.000 OA
ATOM      4  H   UNL     1     -40.776-160.056 310.554  0.00  0.00    +0.000 HD
ENDROOT
BRANCH   2   5
ATOM      5  C   UNL     1     -39.665-162.993 309.359  0.00  0.00    +0.000 A 
ATOM      6  C   UNL     1     -38.772-162.786 308.296  0.00  0.00    +0.000 A 
ATOM      7  C   UNL     1     -38.446-163.831 307.429  0.00  0.00    +0.000 A 
ATOM      8  C   UNL     1     -39.047-165.081 307.590  0.00  0.00    +0.000 A 
ATOM      9  C   UNL     1     -39.914-165.301 308.663  0.00  0.00    +0.000 A 
ATOM     10  C   UNL     1     -40.212-164.261 309.546  0.00  0.00    +0.000 A 
ATOM     11  F   UNL     1     -41.087-164.501 310.533  0.00  0.00    +0.000 F 
BRANCH   8  12
ATOM     12  C   UNL     1     -38.846-166.107 306.605  0.00  0.00    +0.000 C 
ATOM     13  N   UNL     1     -38.710-166.893 305.770  0.00  0.00    +0.000 NA
ENDBRANCH   8  12
ENDBRANCH   2   5
BRANCH   1  14
ATOM     14  C   UNL     1     -41.039-160.478 308.503  0.00  0.00    +0.000 C 
BRANCH  14  17
ATOM     15  C   UNL     1     -41.970-157.228 306.889  0.00  0.00    +0.000 A 
ATOM     16  C   UNL     1     -41.331-158.420 307.167  0.00  0.00    +0.000 A 
ATOM     17  C   UNL     1     -41.581-159.099 308.348  0.00  0.00    +0.000 A 
ATOM     18  C   UNL     1     -42.375-158.490 309.304  0.00  0.00    +0.000 A 
ATOM     19  C   UNL     1     -42.884-157.236 309.008  0.00  0.00    +0.000 A 
ATOM     20  N   UNL     1     -42.721-156.604 307.816  0.00  0.00    +0.000 NA
BRANCH  15  21
ATOM     21  O   UNL     1     -41.741-156.548 305.719  0.00  0.00    +0.000 OA
BRANCH  21  23
ATOM     22  C   UNL     1     -43.118-154.599 304.955  0.00  0.00    +0.000 C 
ATOM     23  C   UNL     1     -42.900-156.106 304.986  0.00  0.00    +0.000 C 
ENDBRANCH  21  23
ENDBRANCH  15  21
ENDBRANCH  14  17
ENDBRANCH   1  14
TORSDOF 6
ENDMDL
MODEL 8
REMARK VINA RESULT:    -8.542      3.378      8.003
REMARK INTER + INTRA:         -12.108
REMARK INTER:                 -11.726
REMARK INTRA:                  -0.383
REMARK UNBOUND:                -0.571
REMARK  Name = 
REMARK  7 active torsions:
REMARK  status: ('A' for Active; 'I' for Inactive)
REMARK    1  A    between atoms: C_1  and  C_2
REMARK    2  A    between atoms: C_2  and  O_3
REMARK    3  A    between atoms: O_3  and  C_4
REMARK    4  A    between atoms: C_6  and  C_7
REMARK    5  A    between atoms: C_7  and  N_8
REMARK    6  A    between atoms: C_9  and  C_11
REMARK    7  A    between atoms: C_14  and  C_15
REMARK                            x       y       z     vdW  Elec       q    Type
REMARK                         _______ _______ _______ _____ _____    ______ ____
ROOT
ATOM      1  N   UNL     1     -40.614-162.357 311.345  0.00  0.00    +0.000 N 
ATOM      2  C   UNL     1     -41.038-162.347 310.040  0.00  0.00    +0.000 C 
ATOM      3  O   UNL     1     -41.206-163.402 309.440  0.00  0.00    +0.000 OA
ATOM      4  H   UNL     1     -40.492-163.285 311.740  0.00  0.00    +0.000 HD
ENDROOT
BRANCH   2   5
ATOM      5  C   UNL     1     -41.263-161.055 309.348  0.00  0.00    +0.000 A 
ATOM      6  C   UNL     1     -42.293-160.186 309.742  0.00  0.00    +0.000 A 
ATOM      7  C   UNL     1     -42.475-158.962 309.095  0.00  0.00    +0.000 A 
ATOM      8  C   UNL     1     -41.658-158.617 308.017  0.00  0.00    +0.000 A 
ATOM      9  C   UNL     1     -40.613-159.464 307.639  0.00  0.00    +0.000 A 
ATOM     10  C   UNL     1     -40.415-160.673 308.310  0.00  0.00    +0.000 A 
ATOM     11  F   UNL     1     -39.433-161.479 307.885  0.00  0.00    +0.000 F 
BRANCH   8  12
ATOM     12  C   UNL     1     -41.947-157.442 307.243  0.00  0.00    +0.000 C 
ATOM     13  N   UNL     1     -42.163-156.530 306.570  0.00  0.00    +0.000 NA
ENDBRANCH   8  12
ENDBRANCH   2   5
BRANCH   1  14
ATOM     14  C   UNL     1     -40.477-161.231 312.228  0.00  0.00    +0.000 C 
BRANCH  14  17
ATOM     15  C   UNL     1     -42.445-161.592 315.396  0.00  0.00    +0.000 A 
ATOM     16  C   UNL     1     -41.530-161.815 314.386  0.00  0.00    +0.000 A 
ATOM     17  C   UNL     1     -41.606-161.116 313.193  0.00  0.00    +0.000 A 
ATOM     18  C   UNL     1     -42.698-160.291 312.980  0.00  0.00    +0.000 A 
ATOM     19  C   UNL     1     -43.643-160.210 313.989  0.00  0.00    +0.000 A 
ATOM     20  N   UNL     1     -43.530-160.819 315.198  0.00  0.00    +0.000 NA
BRANCH  15  21
ATOM     21  O   UNL     1     -42.378-162.269 316.588  0.00  0.00    +0.000 OA
BRANCH  21  23
ATOM     22  C   UNL     1     -40.500-162.625 318.208  0.00  0.00    +0.000 C 
ATOM     23  C   UNL     1     -41.552-161.694 317.618  0.00  0.00    +0.000 C 
ENDBRANCH  21  23
ENDBRANCH  15  21
ENDBRANCH  14  17
ENDBRANCH   1  14
TORSDOF 6
ENDMDL
MODEL 9
REMARK VINA RESULT:    -8.444      2.914      7.369
REMARK INTER + INTRA:         -11.976
REMARK INTER:                 -11.187
REMARK INTRA:                  -0.789
REMARK UNBOUND:                -0.571
REMARK  Name = 
REMARK  7 active torsions:
REMARK  status: ('A' for Active; 'I' for Inactive)
REMARK    1  A    between atoms: C_1  and  C_2
REMARK    2  A    between atoms: C_2  and  O_3
REMARK    3  A    between atoms: O_3  and  C_4
REMARK    4  A    between atoms: C_6  and  C_7
REMARK    5  A    between atoms: C_7  and  N_8
REMARK    6  A    between atoms: C_9  and  C_11
REMARK    7  A    between atoms: C_14  and  C_15
REMARK                            x       y       z     vdW  Elec       q    Type
REMARK                         _______ _______ _______ _____ _____    ______ ____
ROOT
ATOM      1  N   UNL     1     -41.447-156.829 307.176  0.00  0.00    +0.000 N 
ATOM      2  C   UNL     1     -42.520-156.026 306.880  0.00  0.00    +0.000 C 
ATOM      3  O   UNL     1     -42.445-154.814 307.041  0.00  0.00    +0.000 OA
ATOM      4  H   UNL     1     -40.624-156.328 307.497  0.00  0.00    +0.000 HD
ENDROOT
BRANCH   2   5
ATOM      5  C   UNL     1     -43.782-156.633 306.393  0.00  0.00    +0.000 A 
ATOM      6  C   UNL     1     -44.649-157.312 307.264  0.00  0.00    +0.000 A 
ATOM      7  C   UNL     1     -45.845-157.857 306.794  0.00  0.00    +0.000 A 
ATOM      8  C   UNL     1     -46.163-157.768 305.437  0.00  0.00    +0.000 A 
ATOM      9  C   UNL     1     -45.320-157.068 304.571  0.00  0.00    +0.000 A 
ATOM     10  C   UNL     1     -44.140-156.498 305.053  0.00  0.00    +0.000 A 
ATOM     11  F   UNL     1     -43.334-155.879 304.179  0.00  0.00    +0.000 F 
BRANCH   8  12
ATOM     12  C   UNL     1     -47.305-158.470 304.919  0.00  0.00    +0.000 C 
ATOM     13  N   UNL     1     -48.237-159.050 304.563  0.00  0.00    +0.000 NA
ENDBRANCH   8  12
ENDBRANCH   2   5
BRANCH   1  14
ATOM     14  C   UNL     1     -41.321-158.241 306.943  0.00  0.00    +0.000 C 
BRANCH  14  17
ATOM     15  C   UNL     1     -40.542-160.935 309.427  0.00  0.00    +0.000 A 
ATOM     16  C   UNL     1     -40.700-160.252 308.238  0.00  0.00    +0.000 A 
ATOM     17  C   UNL     1     -41.367-159.039 308.200  0.00  0.00    +0.000 A 
ATOM     18  C   UNL     1     -41.993-158.594 309.352  0.00  0.00    +0.000 A 
ATOM     19  C   UNL     1     -41.897-159.392 310.480  0.00  0.00    +0.000 A 
ATOM     20  N   UNL     1     -41.167-160.536 310.551  0.00  0.00    +0.000 NA
BRANCH  15  21
ATOM     21  O   UNL     1     -39.875-162.133 309.483  0.00  0.00    +0.000 OA
BRANCH  21  23
ATOM     22  C   UNL     1     -41.224-164.101 310.249  0.00  0.00    +0.000 C 
ATOM     23  C   UNL     1     -40.613-163.308 309.100  0.00  0.00    +0.000 C 
ENDBRANCH  21  23
ENDBRANCH  15  21
ENDBRANCH  14  17
ENDBRANCH   1  14
TORSDOF 6
ENDMDL
MODEL 10
REMARK VINA RESULT:    -8.394      2.642      7.657
REMARK INTER + INTRA:         -11.908
REMARK INTER:                 -11.330
REMARK INTRA:                  -0.579
REMARK UNBOUND:                -0.571
REMARK  Name = 
REMARK  7 active torsions:
REMARK  status: ('A' for Active; 'I' for Inactive)
REMARK    1  A    between atoms: C_1  and  C_2
REMARK    2  A    between atoms: C_2  and  O_3
REMARK    3  A    between atoms: O_3  and  C_4
REMARK    4  A    between atoms: C_6  and  C_7
REMARK    5  A    between atoms: C_7  and  N_8
REMARK    6  A    between atoms: C_9  and  C_11
REMARK    7  A    between atoms: C_14  and  C_15
REMARK                            x       y       z     vdW  Elec       q    Type
REMARK                         _______ _______ _______ _____ _____    ______ ____
ROOT
ATOM      1  N   UNL     1     -41.531-158.408 307.846  0.00  0.00    +0.000 N 
ATOM      2  C   UNL     1     -41.738-157.862 306.604  0.00  0.00    +0.000 C 
ATOM      3  O   UNL     1     -40.962-158.105 305.688  0.00  0.00    +0.000 OA
ATOM      4  H   UNL     1     -40.724-159.024 307.905  0.00  0.00    +0.000 HD
ENDROOT
BRANCH   2   5
ATOM      5  C   UNL     1     -42.886-156.951 306.383  0.00  0.00    +0.000 A 
ATOM      6  C   UNL     1     -44.073-157.405 305.786  0.00  0.00    +0.000 A 
ATOM      7  C   UNL     1     -45.154-156.541 305.606  0.00  0.00    +0.000 A 
ATOM      8  C   UNL     1     -45.041-155.200 305.980  0.00  0.00    +0.000 A 
ATOM      9  C   UNL     1     -43.874-154.748 306.602  0.00  0.00    +0.000 A 
ATOM     10  C   UNL     1     -42.808-155.626 306.807  0.00  0.00    +0.000 A 
ATOM     11  F   UNL     1     -41.687-155.141 307.361  0.00  0.00    +0.000 F 
BRANCH   8  12
ATOM     12  C   UNL     1     -46.084-154.270 305.645  0.00  0.00    +0.000 C 
ATOM     13  N   UNL     1     -46.895-153.515 305.320  0.00  0.00    +0.000 NA
ENDBRANCH   8  12
ENDBRANCH   2   5
BRANCH   1  14
ATOM     14  C   UNL     1     -42.393-158.325 308.992  0.00  0.00    +0.000 C 
BRANCH  14  17
ATOM     15  C   UNL     1     -40.640-160.867 311.114  0.00  0.00    +0.000 A 
ATOM     16  C   UNL     1     -41.365-160.284 310.094  0.00  0.00    +0.000 A 
ATOM     17  C   UNL     1     -41.811-158.977 310.199  0.00  0.00    +0.000 A 
ATOM     18  C   UNL     1     -41.636-158.315 311.402  0.00  0.00    +0.000 A 
ATOM     19  C   UNL     1     -41.010-159.005 312.427  0.00  0.00    +0.000 A 
ATOM     20  N   UNL     1     -40.486-160.253 312.303  0.00  0.00    +0.000 NA
BRANCH  15  21
ATOM     21  O   UNL     1     -40.183-162.158 311.022  0.00  0.00    +0.000 OA
BRANCH  21  23
ATOM     22  C   UNL     1     -41.429-164.208 310.300  0.00  0.00    +0.000 C 
ATOM     23  C   UNL     1     -41.100-163.202 311.396  0.00  0.00    +0.000 C 
ENDBRANCH  21  23
ENDBRANCH  15  21
ENDBRANCH  14  17
ENDBRANCH   1  14
TORSDOF 6
ENDMDL
