MODEL 1
REMARK VINA RESULT:    -8.234      0.000      0.000
REMARK INTER + INTRA:         -12.380
REMARK INTER:                 -10.641
REMARK INTRA:                  -1.739
REMARK UNBOUND:                -1.739
REMARK  Name = 
REMARK  6 active torsions:
REMARK  status: ('A' for Active; 'I' for Inactive)
REMARK    1  A    between atoms: C_1  and  C_2
REMARK    2  A    between atoms: C_2  and  C_3
REMARK    3  A    between atoms: C_3  and  C_4
REMARK    4  A    between atoms: C_7  and  C_9
REMARK    5  A    between atoms: N_21  and  C_22
REMARK    6  A    between atoms: C_22  and  C_23
REMARK                            x       y       z     vdW  Elec       q    Type
REMARK                         _______ _______ _______ _____ _____    ______ ____
ROOT
ATOM      1  C   UNL     1     -42.062-159.586 309.735  0.00  0.00    +0.000 C 
ATOM      2  C   UNL     1     -42.509-159.484 308.234  0.00  0.00    +0.000 C 
ATOM      3  N   UNL     1     -41.468-159.217 307.275  0.00  0.00    +0.000 N 
ATOM      4  C   UNL     1     -41.358-157.887 306.739  0.00  0.00    +0.000 C 
ATOM      5  O   UNL     1     -40.319-157.496 306.155  0.00  0.00    +0.000 OA
ATOM      6  C   UNL     1     -40.358-160.280 307.194  0.00  0.00    +0.000 C 
ATOM      7  C   UNL     1     -39.587-160.786 308.466  0.00  0.00    +0.000 C 
ATOM      8  C   UNL     1     -40.392-161.468 309.586  0.00  0.00    +0.000 C 
ATOM      9  O   UNL     1     -39.887-162.448 310.145  0.00  0.00    +0.000 OA
ATOM     10  N   UNL     1     -41.610-160.953 310.031  0.00  0.00    +0.000 N 
ENDROOT
BRANCH   4  11
ATOM     11  C   UNL     1     -42.437-156.833 306.918  0.00  0.00    +0.000 A 
ATOM     12  C   UNL     1     -42.683-156.114 308.110  0.00  0.00    +0.000 A 
ATOM     13  C   UNL     1     -43.739-155.186 308.204  0.00  0.00    +0.000 A 
ATOM     14  C   UNL     1     -44.522-154.929 307.089  0.00  0.00    +0.000 A 
ATOM     15  F   UNL     1     -45.540-154.062 307.176  0.00  0.00    +0.000 F 
ATOM     16  C   UNL     1     -44.256-155.564 305.884  0.00  0.00    +0.000 A 
ATOM     17  C   UNL     1     -43.214-156.497 305.806  0.00  0.00    +0.000 A 
ATOM     18  F   UNL     1     -42.993-157.088 304.625  0.00  0.00    +0.000 F 
ENDBRANCH   4  11
BRANCH   1  19
ATOM     19  C   UNL     1     -41.220-158.581 310.655  0.00  0.00    +0.000 C 
BRANCH  19  21
ATOM     20  C   UNL     1     -41.296-157.830 312.956  0.00  0.00    +0.000 C 
ATOM     21  C   UNL     1     -42.009-157.696 311.636  0.00  0.00    +0.000 C 
ENDBRANCH  19  21
ENDBRANCH   1  19
BRANCH  10  22
ATOM     22  C   UNL     1     -42.428-161.775 310.942  0.00  0.00    +0.000 C 
BRANCH  22  23
ATOM     23  C   UNL     1     -42.554-161.343 312.396  0.00  0.00    +0.000 A 
ATOM     24  C   UNL     1     -41.589-161.741 313.331  0.00  0.00    +0.000 A 
ATOM     25  C   UNL     1     -41.788-161.511 314.698  0.00  0.00    +0.000 A 
ATOM     26  C   UNL     1     -42.879-160.767 315.142  0.00  0.00    +0.000 A 
ATOM     27  C   UNL     1     -43.820-160.322 314.231  0.00  0.00    +0.000 A 
ATOM     28  C   UNL     1     -43.688-160.673 312.892  0.00  0.00    +0.000 A 
ENDBRANCH  22  23
ENDBRANCH  10  22
TORSDOF 5
ENDMDL
MODEL 2
REMARK VINA RESULT:    -8.054      3.283      7.723
REMARK INTER + INTRA:         -12.147
REMARK INTER:                 -10.944
REMARK INTRA:                  -1.203
REMARK UNBOUND:                -1.739
REMARK  Name = 
REMARK  6 active torsions:
REMARK  status: ('A' for Active; 'I' for Inactive)
REMARK    1  A    between atoms: C_1  and  C_2
REMARK    2  A    between atoms: C_2  and  C_3
REMARK    3  A    between atoms: C_3  and  C_4
REMARK    4  A    between atoms: C_7  and  C_9
REMARK    5  A    between atoms: N_21  and  C_22
REMARK    6  A    between atoms: C_22  and  C_23
REMARK                            x       y       z     vdW  Elec       q    Type
REMARK                         _______ _______ _______ _____ _____    ______ ____
ROOT
ATOM      1  C   UNL     1     -41.953-159.761 309.309  0.00  0.00    +0.000 C 
ATOM      2  C   UNL     1     -42.444-160.833 310.346  0.00  0.00    +0.000 C 
ATOM      3  N   UNL     1     -41.726-160.889 311.593  0.00  0.00    +0.000 N 
ATOM      4  C   UNL     1     -40.786-161.959 311.792  0.00  0.00    +0.000 C 
ATOM      5  O   UNL     1     -39.913-161.911 312.691  0.00  0.00    +0.000 OA
ATOM      6  C   UNL     1     -41.767-159.602 312.437  0.00  0.00    +0.000 C 
ATOM      7  C   UNL     1     -41.392-158.198 311.842  0.00  0.00    +0.000 C 
ATOM      8  C   UNL     1     -42.224-157.656 310.666  0.00  0.00    +0.000 C 
ATOM      9  O   UNL     1     -42.496-156.449 310.659  0.00  0.00    +0.000 OA
ATOM     10  N   UNL     1     -42.587-158.466 309.590  0.00  0.00    +0.000 N 
ENDROOT
BRANCH   4  11
ATOM     11  C   UNL     1     -40.713-163.173 310.882  0.00  0.00    +0.000 A 
ATOM     12  C   UNL     1     -41.616-164.261 310.902  0.00  0.00    +0.000 A 
ATOM     13  C   UNL     1     -41.446-165.372 310.052  0.00  0.00    +0.000 A 
ATOM     14  C   UNL     1     -40.404-165.379 309.137  0.00  0.00    +0.000 A 
ATOM     15  F   UNL     1     -40.225-166.441 308.340  0.00  0.00    +0.000 F 
ATOM     16  C   UNL     1     -39.547-164.292 309.044  0.00  0.00    +0.000 A 
ATOM     17  C   UNL     1     -39.715-163.199 309.904  0.00  0.00    +0.000 A 
ATOM     18  F   UNL     1     -38.865-162.172 309.782  0.00  0.00    +0.000 F 
ENDBRANCH   4  11
BRANCH   1  19
ATOM     19  C   UNL     1     -40.502-159.475 308.696  0.00  0.00    +0.000 C 
BRANCH  19  21
ATOM     20  C   UNL     1     -40.856-161.436 307.320  0.00  0.00    +0.000 C 
ATOM     21  C   UNL     1     -40.186-160.087 307.319  0.00  0.00    +0.000 C 
ENDBRANCH  19  21
ENDBRANCH   1  19
BRANCH  10  22
ATOM     22  C   UNL     1     -43.566-157.944 308.618  0.00  0.00    +0.000 C 
BRANCH  22  23
ATOM     23  C   UNL     1     -43.071-157.033 307.504  0.00  0.00    +0.000 A 
ATOM     24  C   UNL     1     -43.272-155.649 307.589  0.00  0.00    +0.000 A 
ATOM     25  C   UNL     1     -42.992-154.823 306.493  0.00  0.00    +0.000 A 
ATOM     26  C   UNL     1     -42.383-155.339 305.351  0.00  0.00    +0.000 A 
ATOM     27  C   UNL     1     -42.130-156.696 305.265  0.00  0.00    +0.000 A 
ATOM     28  C   UNL     1     -42.538-157.530 306.299  0.00  0.00    +0.000 A 
ENDBRANCH  22  23
ENDBRANCH  10  22
TORSDOF 5
ENDMDL
MODEL 3
REMARK VINA RESULT:    -7.219      3.877      7.397
REMARK INTER + INTRA:         -11.069
REMARK INTER:                 -11.324
REMARK INTRA:                   0.255
REMARK UNBOUND:                -1.739
REMARK  Name = 
REMARK  6 active torsions:
REMARK  status: ('A' for Active; 'I' for Inactive)
REMARK    1  A    between atoms: C_1  and  C_2
REMARK    2  A    between atoms: C_2  and  C_3
REMARK    3  A    between atoms: C_3  and  C_4
REMARK    4  A    between atoms: C_7  and  C_9
REMARK    5  A    between atoms: N_21  and  C_22
REMARK    6  A    between atoms: C_22  and  C_23
REMARK                            x       y       z     vdW  Elec       q    Type
REMARK                         _______ _______ _______ _____ _____    ______ ____
ROOT
ATOM      1  C   UNL     1     -40.937-160.203 309.789  0.00  0.00    +0.000 C 
ATOM      2  C   UNL     1     -41.462-161.364 308.873  0.00  0.00    +0.000 C 
ATOM      3  N   UNL     1     -41.930-162.548 309.548  0.00  0.00    +0.000 N 
ATOM      4  C   UNL     1     -41.080-163.708 309.559  0.00  0.00    +0.000 C 
ATOM      5  O   UNL     1     -41.263-164.651 310.365  0.00  0.00    +0.000 OA
ATOM      6  C   UNL     1     -43.125-162.338 310.495  0.00  0.00    +0.000 C 
ATOM      7  C   UNL     1     -43.125-161.234 311.613  0.00  0.00    +0.000 C 
ATOM      8  C   UNL     1     -42.987-159.762 311.186  0.00  0.00    +0.000 C 
ATOM      9  O   UNL     1     -43.669-158.921 311.785  0.00  0.00    +0.000 OA
ATOM     10  N   UNL     1     -42.060-159.361 310.223  0.00  0.00    +0.000 N 
ENDROOT
BRANCH   4  11
ATOM     11  C   UNL     1     -39.853-163.841 308.673  0.00  0.00    +0.000 A 
ATOM     12  C   UNL     1     -39.049-162.766 308.229  0.00  0.00    +0.000 A 
ATOM     13  C   UNL     1     -37.954-162.975 307.368  0.00  0.00    +0.000 A 
ATOM     14  C   UNL     1     -37.621-164.266 306.988  0.00  0.00    +0.000 A 
ATOM     15  F   UNL     1     -36.593-164.470 306.153  0.00  0.00    +0.000 F 
ATOM     16  C   UNL     1     -38.347-165.347 307.467  0.00  0.00    +0.000 A 
ATOM     17  C   UNL     1     -39.444-165.127 308.311  0.00  0.00    +0.000 A 
ATOM     18  F   UNL     1     -40.118-166.198 308.749  0.00  0.00    +0.000 F 
ENDBRANCH   4  11
BRANCH   1  19
ATOM     19  C   UNL     1     -39.838-160.194 310.954  0.00  0.00    +0.000 C 
BRANCH  19  21
ATOM     20  C   UNL     1     -40.249-161.421 313.000  0.00  0.00    +0.000 C 
ATOM     21  C   UNL     1     -39.557-161.529 311.667  0.00  0.00    +0.000 C 
ENDBRANCH  19  21
ENDBRANCH   1  19
BRANCH  10  22
ATOM     22  C   UNL     1     -42.139-157.982 309.706  0.00  0.00    +0.000 C 
BRANCH  22  23
ATOM     23  C   UNL     1     -42.681-157.762 308.302  0.00  0.00    +0.000 A 
ATOM     24  C   UNL     1     -41.815-157.807 307.201  0.00  0.00    +0.000 A 
ATOM     25  C   UNL     1     -42.262-157.424 305.930  0.00  0.00    +0.000 A 
ATOM     26  C   UNL     1     -43.604-157.121 305.710  0.00  0.00    +0.000 A 
ATOM     27  C   UNL     1     -44.488-157.119 306.773  0.00  0.00    +0.000 A 
ATOM     28  C   UNL     1     -44.009-157.364 308.055  0.00  0.00    +0.000 A 
ENDBRANCH  22  23
ENDBRANCH  10  22
TORSDOF 5
ENDMDL
MODEL 4
REMARK VINA RESULT:    -7.061      3.025      7.440
REMARK INTER + INTRA:         -10.865
REMARK INTER:                 -11.193
REMARK INTRA:                   0.328
REMARK UNBOUND:                -1.739
REMARK  Name = 
REMARK  6 active torsions:
REMARK  status: ('A' for Active; 'I' for Inactive)
REMARK    1  A    between atoms: C_1  and  C_2
REMARK    2  A    between atoms: C_2  and  C_3
REMARK    3  A    between atoms: C_3  and  C_4
REMARK    4  A    between atoms: C_7  and  C_9
REMARK    5  A    between atoms: N_21  and  C_22
REMARK    6  A    between atoms: C_22  and  C_23
REMARK                            x       y       z     vdW  Elec       q    Type
REMARK                         _______ _______ _______ _____ _____    ______ ____
ROOT
ATOM      1  C   UNL     1     -42.502-157.929 308.809  0.00  0.00    +0.000 C 
ATOM      2  C   UNL     1     -41.347-158.511 309.699  0.00  0.00    +0.000 C 
ATOM      3  N   UNL     1     -40.837-159.804 309.318  0.00  0.00    +0.000 N 
ATOM      4  C   UNL     1     -41.238-160.951 310.089  0.00  0.00    +0.000 C 
ATOM      5  O   UNL     1     -41.099-162.118 309.652  0.00  0.00    +0.000 OA
ATOM      6  C   UNL     1     -40.211-159.877 307.914  0.00  0.00    +0.000 C 
ATOM      7  C   UNL     1     -40.964-159.369 306.632  0.00  0.00    +0.000 C 
ATOM      8  C   UNL     1     -41.365-157.885 306.560  0.00  0.00    +0.000 C 
ATOM      9  O   UNL     1     -41.246-157.307 305.473  0.00  0.00    +0.000 OA
ATOM     10  N   UNL     1     -41.934-157.226 307.651  0.00  0.00    +0.000 N 
ENDROOT
BRANCH   4  11
ATOM     11  C   UNL     1     -41.938-160.838 311.432  0.00  0.00    +0.000 A 
ATOM     12  C   UNL     1     -43.299-160.502 311.615  0.00  0.00    +0.000 A 
ATOM     13  C   UNL     1     -43.857-160.372 312.902  0.00  0.00    +0.000 A 
ATOM     14  C   UNL     1     -43.072-160.633 314.016  0.00  0.00    +0.000 A 
ATOM     15  F   UNL     1     -43.591-160.492 315.243  0.00  0.00    +0.000 F 
ATOM     16  C   UNL     1     -41.754-161.037 313.864  0.00  0.00    +0.000 A 
ATOM     17  C   UNL     1     -41.204-161.148 312.580  0.00  0.00    +0.000 A 
ATOM     18  F   UNL     1     -39.928-161.540 312.479  0.00  0.00    +0.000 F 
ENDBRANCH   4  11
BRANCH   1  19
ATOM     19  C   UNL     1     -43.907-158.555 308.363  0.00  0.00    +0.000 C 
BRANCH  19  21
ATOM     20  C   UNL     1     -45.548-158.098 306.642  0.00  0.00    +0.000 C 
ATOM     21  C   UNL     1     -45.016-157.570 307.948  0.00  0.00    +0.000 C 
ENDBRANCH  19  21
ENDBRANCH   1  19
BRANCH  10  22
ATOM     22  C   UNL     1     -42.084-155.760 307.583  0.00  0.00    +0.000 C 
BRANCH  22  23
ATOM     23  C   UNL     1     -43.145-155.179 306.660  0.00  0.00    +0.000 A 
ATOM     24  C   UNL     1     -44.412-154.857 307.165  0.00  0.00    +0.000 A 
ATOM     25  C   UNL     1     -45.451-154.499 306.298  0.00  0.00    +0.000 A 
ATOM     26  C   UNL     1     -45.213-154.326 304.936  0.00  0.00    +0.000 A 
ATOM     27  C   UNL     1     -43.957-154.591 304.422  0.00  0.00    +0.000 A 
ATOM     28  C   UNL     1     -42.967-155.079 305.268  0.00  0.00    +0.000 A 
ENDBRANCH  22  23
ENDBRANCH  10  22
TORSDOF 5
ENDMDL
