MODEL 1
REMARK VINA RESULT:     0.000      0.000      0.000
REMARK INTER + INTRA:          -0.986
REMARK INTER:                   0.000
REMARK INTRA:                  -0.986
REMARK UNBOUND:                -0.986
REMARK  Name = 
REMARK  5 active torsions:
REMARK  status: ('A' for Active; 'I' for Inactive)
REMARK    1  A    between atoms: C_1  and  C_2
REMARK    2  A    between atoms: C_2  and  O_3
REMARK    3  A    between atoms: O_3  and  C_4
REMARK    4  A    between atoms: C_10  and  N_11
REMARK    5  A    between atoms: C_12  and  C_14
REMARK                            x       y       z     vdW  Elec       q    Type
REMARK                         _______ _______ _______ _____ _____    ______ ____
ROOT
ATOM      1  N   UNL     1     -41.300-294.870  62.432  0.00  0.00    +0.000 N 
ATOM      2  C   UNL     1     -41.366-294.357  61.125  0.00  0.00    +0.000 C 
ATOM      3  O   UNL     1     -42.377-294.595  60.449  0.00  0.00    +0.000 OA
ATOM      4  H   UNL     1     -42.047-295.525  62.642  0.00  0.00    +0.000 HD
ENDROOT
BRANCH   2   5
ATOM      5  C   UNL     1     -40.287-293.511  60.567  0.00  0.00    +0.000 A 
ATOM      6  C   UNL     1     -40.123-292.141  60.727  0.00  0.00    +0.000 A 
ATOM      7  N   UNL     1     -38.856-291.854  60.263  0.00  0.00    +0.000 N 
ATOM      8  C   UNL     1     -38.156-290.651  60.197  0.00  0.00    +0.000 A 
ATOM      9  C   UNL     1     -36.897-290.649  59.733  0.00  0.00    +0.000 A 
ATOM     10  C   UNL     1     -36.340-291.992  59.407  0.00  0.00    +0.000 A 
ATOM     11  N   UNL     1     -36.982-293.117  59.446  0.00  0.00    +0.000 NA
ATOM     12  C   UNL     1     -38.294-293.050  59.821  0.00  0.00    +0.000 A 
ATOM     13  N   UNL     1     -39.187-294.018  59.882  0.00  0.00    +0.000 NA
ENDBRANCH   2   5
BRANCH   1  20
ATOM     14  C   UNL     1     -39.089-295.244  63.528  0.00  0.00    +0.000 A 
ATOM     15  C   UNL     1     -38.173-294.801  64.509  0.00  0.00    +0.000 A 
ATOM     16  C   UNL     1     -38.511-293.885  65.501  0.00  0.00    +0.000 A 
ATOM     17  C   UNL     1     -39.767-293.362  65.485  0.00  0.00    +0.000 A 
ATOM     18  F   UNL     1     -40.143-292.438  66.377  0.00  0.00    +0.000 F 
ATOM     19  C   UNL     1     -40.673-293.795  64.540  0.00  0.00    +0.000 A 
ATOM     20  C   UNL     1     -40.359-294.640  63.479  0.00  0.00    +0.000 A 
BRANCH  14  21
ATOM     21  O   UNL     1     -38.710-296.173  62.587  0.00  0.00    +0.000 OA
BRANCH  21  23
ATOM     22  C   UNL     1     -37.007-296.775  60.816  0.00  0.00    +0.000 C 
ATOM     23  C   UNL     1     -37.321-296.146  62.171  0.00  0.00    +0.000 C 
ENDBRANCH  21  23
ENDBRANCH  14  21
ENDBRANCH   1  20
TORSDOF 4
ENDMDL
MODEL 2
REMARK VINA RESULT:     0.000     12.932     15.212
REMARK INTER + INTRA:          -0.986
REMARK INTER:                   0.000
REMARK INTRA:                  -0.986
REMARK UNBOUND:                -0.986
REMARK  Name = 
REMARK  5 active torsions:
REMARK  status: ('A' for Active; 'I' for Inactive)
REMARK    1  A    between atoms: C_1  and  C_2
REMARK    2  A    between atoms: C_2  and  O_3
REMARK    3  A    between atoms: O_3  and  C_4
REMARK    4  A    between atoms: C_10  and  N_11
REMARK    5  A    between atoms: C_12  and  C_14
REMARK                            x       y       z     vdW  Elec       q    Type
REMARK                         _______ _______ _______ _____ _____    ______ ____
ROOT
ATOM      1  N   UNL     1     -47.897-302.035  57.676  0.00  0.00    +0.000 N 
ATOM      2  C   UNL     1     -47.884-300.687  57.276  0.00  0.00    +0.000 C 
ATOM      3  O   UNL     1     -46.843-300.035  57.437  0.00  0.00    +0.000 OA
ATOM      4  H   UNL     1     -47.072-302.301  58.206  0.00  0.00    +0.000 HD
ENDROOT
BRANCH   2   5
ATOM      5  C   UNL     1     -49.059-300.057  56.632  0.00  0.00    +0.000 A 
ATOM      6  C   UNL     1     -49.403-300.095  55.287  0.00  0.00    +0.000 A 
ATOM      7  N   UNL     1     -50.692-299.608  55.211  0.00  0.00    +0.000 N 
ATOM      8  C   UNL     1     -51.543-299.436  54.122  0.00  0.00    +0.000 A 
ATOM      9  C   UNL     1     -52.786-298.974  54.326  0.00  0.00    +0.000 A 
ATOM     10  C   UNL     1     -53.158-298.769  55.754  0.00  0.00    +0.000 A 
ATOM     11  N   UNL     1     -52.374-298.907  56.778  0.00  0.00    +0.000 NA
ATOM     12  C   UNL     1     -51.086-299.274  56.505  0.00  0.00    +0.000 A 
ATOM     13  N   UNL     1     -50.075-299.420  57.338  0.00  0.00    +0.000 NA
ENDBRANCH   2   5
BRANCH   1  20
ATOM     14  C   UNL     1     -50.052-303.160  58.241  0.00  0.00    +0.000 A 
ATOM     15  C   UNL     1     -51.029-304.098  57.837  0.00  0.00    +0.000 A 
ATOM     16  C   UNL     1     -50.826-305.006  56.801  0.00  0.00    +0.000 A 
ATOM     17  C   UNL     1     -49.649-304.943  56.121  0.00  0.00    +0.000 A 
ATOM     18  F   UNL     1     -49.408-305.749  55.081  0.00  0.00    +0.000 F 
ATOM     19  C   UNL     1     -48.683-304.039  56.512  0.00  0.00    +0.000 A 
ATOM     20  C   UNL     1     -48.871-303.058  57.481  0.00  0.00    +0.000 A 
BRANCH  14  21
ATOM     21  O   UNL     1     -50.295-302.305  59.290  0.00  0.00    +0.000 OA
BRANCH  21  23
ATOM     22  C   UNL     1     -51.884-300.596  60.266  0.00  0.00    +0.000 C 
ATOM     23  C   UNL     1     -51.670-301.889  59.484  0.00  0.00    +0.000 C 
ENDBRANCH  21  23
ENDBRANCH  14  21
ENDBRANCH   1  20
TORSDOF 4
ENDMDL
MODEL 3
REMARK VINA RESULT:     0.000     11.941     14.210
REMARK INTER + INTRA:          -0.986
REMARK INTER:                   0.000
REMARK INTRA:                  -0.986
REMARK UNBOUND:                -0.986
REMARK  Name = 
REMARK  5 active torsions:
REMARK  status: ('A' for Active; 'I' for Inactive)
REMARK    1  A    between atoms: C_1  and  C_2
REMARK    2  A    between atoms: C_2  and  O_3
REMARK    3  A    between atoms: O_3  and  C_4
REMARK    4  A    between atoms: C_10  and  N_11
REMARK    5  A    between atoms: C_12  and  C_14
REMARK                            x       y       z     vdW  Elec       q    Type
REMARK                         _______ _______ _______ _____ _____    ______ ____
ROOT
ATOM      1  N   UNL     1     -44.577-303.219  55.380  0.00  0.00    +0.000 N 
ATOM      2  C   UNL     1     -45.794-303.109  54.684  0.00  0.00    +0.000 C 
ATOM      3  O   UNL     1     -45.763-302.763  53.494  0.00  0.00    +0.000 OA
ATOM      4  H   UNL     1     -43.785-302.853  54.859  0.00  0.00    +0.000 HD
ENDROOT
BRANCH   2   5
ATOM      5  C   UNL     1     -47.087-303.438  55.324  0.00  0.00    +0.000 A 
ATOM      6  C   UNL     1     -47.670-304.693  55.450  0.00  0.00    +0.000 A 
ATOM      7  N   UNL     1     -48.714-304.539  56.337  0.00  0.00    +0.000 N 
ATOM      8  C   UNL     1     -49.627-305.461  56.844  0.00  0.00    +0.000 A 
ATOM      9  C   UNL     1     -50.537-305.057  57.745  0.00  0.00    +0.000 A 
ATOM     10  C   UNL     1     -50.410-303.638  58.180  0.00  0.00    +0.000 A 
ATOM     11  N   UNL     1     -49.578-302.763  57.707  0.00  0.00    +0.000 NA
ATOM     12  C   UNL     1     -48.747-303.198  56.713  0.00  0.00    +0.000 A 
ATOM     13  N   UNL     1     -47.862-302.512  56.017  0.00  0.00    +0.000 NA
ENDBRANCH   2   5
BRANCH   1  20
ATOM     14  C   UNL     1     -44.525-303.016  57.866  0.00  0.00    +0.000 A 
ATOM     15  C   UNL     1     -44.374-303.693  59.098  0.00  0.00    +0.000 A 
ATOM     16  C   UNL     1     -43.885-304.993  59.194  0.00  0.00    +0.000 A 
ATOM     17  C   UNL     1     -43.590-305.649  58.038  0.00  0.00    +0.000 A 
ATOM     18  F   UNL     1     -43.166-306.918  58.053  0.00  0.00    +0.000 F 
ATOM     19  C   UNL     1     -43.723-304.996  56.831  0.00  0.00    +0.000 A 
ATOM     20  C   UNL     1     -44.287-303.733  56.678  0.00  0.00    +0.000 A 
BRANCH  14  21
ATOM     21  O   UNL     1     -44.987-301.721  57.832  0.00  0.00    +0.000 OA
BRANCH  21  23
ATOM     22  C   UNL     1     -46.817-300.138  58.566  0.00  0.00    +0.000 C 
ATOM     23  C   UNL     1     -45.926-301.339  58.868  0.00  0.00    +0.000 C 
ENDBRANCH  21  23
ENDBRANCH  14  21
ENDBRANCH   1  20
TORSDOF 4
ENDMDL
MODEL 4
REMARK VINA RESULT:     0.000     12.033     14.361
REMARK INTER + INTRA:          -0.986
REMARK INTER:                   0.000
REMARK INTRA:                  -0.986
REMARK UNBOUND:                -0.986
REMARK  Name = 
REMARK  5 active torsions:
REMARK  status: ('A' for Active; 'I' for Inactive)
REMARK    1  A    between atoms: C_1  and  C_2
REMARK    2  A    between atoms: C_2  and  O_3
REMARK    3  A    between atoms: O_3  and  C_4
REMARK    4  A    between atoms: C_10  and  N_11
REMARK    5  A    between atoms: C_12  and  C_14
REMARK                            x       y       z     vdW  Elec       q    Type
REMARK                         _______ _______ _______ _____ _____    ______ ____
ROOT
ATOM      1  N   UNL     1     -41.574-303.281  56.805  0.00  0.00    +0.000 N 
ATOM      2  C   UNL     1     -40.733-304.082  57.598  0.00  0.00    +0.000 C 
ATOM      3  O   UNL     1     -39.691-303.581  58.044  0.00  0.00    +0.000 OA
ATOM      4  H   UNL     1     -41.154-302.391  56.552  0.00  0.00    +0.000 HD
ENDROOT
BRANCH   2   5
ATOM      5  C   UNL     1     -41.090-305.476  57.944  0.00  0.00    +0.000 A 
ATOM      6  C   UNL     1     -41.905-305.904  58.984  0.00  0.00    +0.000 A 
ATOM      7  N   UNL     1     -42.155-307.239  58.746  0.00  0.00    +0.000 N 
ATOM      8  C   UNL     1     -42.922-308.166  59.448  0.00  0.00    +0.000 A 
ATOM      9  C   UNL     1     -43.039-309.416  58.973  0.00  0.00    +0.000 A 
ATOM     10  C   UNL     1     -42.384-309.657  57.656  0.00  0.00    +0.000 A 
ATOM     11  N   UNL     1     -41.654-308.811  56.998  0.00  0.00    +0.000 NA
ATOM     12  C   UNL     1     -41.475-307.588  57.580  0.00  0.00    +0.000 A 
ATOM     13  N   UNL     1     -40.737-306.576  57.168  0.00  0.00    +0.000 NA
ENDBRANCH   2   5
BRANCH   1  20
ATOM     14  C   UNL     1     -43.141-304.330  55.171  0.00  0.00    +0.000 A 
ATOM     15  C   UNL     1     -44.484-304.647  54.868  0.00  0.00    +0.000 A 
ATOM     16  C   UNL     1     -45.565-304.099  55.552  0.00  0.00    +0.000 A 
ATOM     17  C   UNL     1     -45.301-303.259  56.592  0.00  0.00    +0.000 A 
ATOM     18  F   UNL     1     -46.291-302.738  57.326  0.00  0.00    +0.000 F 
ATOM     19  C   UNL     1     -43.995-302.934  56.890  0.00  0.00    +0.000 A 
ATOM     20  C   UNL     1     -42.883-303.521  56.294  0.00  0.00    +0.000 A 
BRANCH  14  21
ATOM     21  O   UNL     1     -42.111-304.881  54.443  0.00  0.00    +0.000 OA
BRANCH  21  23
ATOM     22  C   UNL     1     -41.080-307.021  53.575  0.00  0.00    +0.000 C 
ATOM     23  C   UNL     1     -42.330-306.213  53.915  0.00  0.00    +0.000 C 
ENDBRANCH  21  23
ENDBRANCH  14  21
ENDBRANCH   1  20
TORSDOF 4
ENDMDL
MODEL 5
REMARK VINA RESULT:     0.000      5.126      6.290
REMARK INTER + INTRA:          -0.986
REMARK INTER:                   0.000
REMARK INTRA:                  -0.986
REMARK UNBOUND:                -0.986
REMARK  Name = 
REMARK  5 active torsions:
REMARK  status: ('A' for Active; 'I' for Inactive)
REMARK    1  A    between atoms: C_1  and  C_2
REMARK    2  A    between atoms: C_2  and  O_3
REMARK    3  A    between atoms: O_3  and  C_4
REMARK    4  A    between atoms: C_10  and  N_11
REMARK    5  A    between atoms: C_12  and  C_14
REMARK                            x       y       z     vdW  Elec       q    Type
REMARK                         _______ _______ _______ _____ _____    ______ ____
ROOT
ATOM      1  N   UNL     1     -44.301-298.590  62.723  0.00  0.00    +0.000 N 
ATOM      2  C   UNL     1     -45.392-297.720  62.890  0.00  0.00    +0.000 C 
ATOM      3  O   UNL     1     -46.458-298.186  63.316  0.00  0.00    +0.000 OA
ATOM      4  H   UNL     1     -44.550-299.569  62.833  0.00  0.00    +0.000 HD
ENDROOT
BRANCH   2   5
ATOM      5  C   UNL     1     -45.277-296.270  62.616  0.00  0.00    +0.000 A 
ATOM      6  C   UNL     1     -44.803-295.285  63.474  0.00  0.00    +0.000 A 
ATOM      7  N   UNL     1     -44.635-294.156  62.700  0.00  0.00    +0.000 N 
ATOM      8  C   UNL     1     -44.171-292.884  63.026  0.00  0.00    +0.000 A 
ATOM      9  C   UNL     1     -44.062-291.957  62.060  0.00  0.00    +0.000 A 
ATOM     10  C   UNL     1     -44.379-292.436  60.685  0.00  0.00    +0.000 A 
ATOM     11  N   UNL     1     -44.827-293.610  60.367  0.00  0.00    +0.000 NA
ATOM     12  C   UNL     1     -45.025-294.480  61.402  0.00  0.00    +0.000 A 
ATOM     13  N   UNL     1     -45.528-295.699  61.372  0.00  0.00    +0.000 NA
ENDBRANCH   2   5
BRANCH   1  20
ATOM     14  C   UNL     1     -42.481-298.034  61.108  0.00  0.00    +0.000 A 
ATOM     15  C   UNL     1     -41.144-297.607  60.946  0.00  0.00    +0.000 A 
ATOM     16  C   UNL     1     -40.224-297.581  61.991  0.00  0.00    +0.000 A 
ATOM     17  C   UNL     1     -40.660-297.936  63.231  0.00  0.00    +0.000 A 
ATOM     18  F   UNL     1     -39.844-297.884  64.290  0.00  0.00    +0.000 F 
ATOM     19  C   UNL     1     -41.959-298.365  63.399  0.00  0.00    +0.000 A 
ATOM     20  C   UNL     1     -42.935-298.327  62.408  0.00  0.00    +0.000 A 
BRANCH  14  21
ATOM     21  O   UNL     1     -43.340-298.066  60.034  0.00  0.00    +0.000 OA
BRANCH  21  23
ATOM     22  C   UNL     1     -44.324-296.756  58.107  0.00  0.00    +0.000 C 
ATOM     23  C   UNL     1     -43.129-297.069  59.003  0.00  0.00    +0.000 C 
ENDBRANCH  21  23
ENDBRANCH  14  21
ENDBRANCH   1  20
TORSDOF 4
ENDMDL
MODEL 6
REMARK VINA RESULT:     0.000      8.354     10.892
REMARK INTER + INTRA:          -0.986
REMARK INTER:                   0.000
REMARK INTRA:                  -0.986
REMARK UNBOUND:                -0.986
REMARK  Name = 
REMARK  5 active torsions:
REMARK  status: ('A' for Active; 'I' for Inactive)
REMARK    1  A    between atoms: C_1  and  C_2
REMARK    2  A    between atoms: C_2  and  O_3
REMARK    3  A    between atoms: O_3  and  C_4
REMARK    4  A    between atoms: C_10  and  N_11
REMARK    5  A    between atoms: C_12  and  C_14
REMARK                            x       y       z     vdW  Elec       q    Type
REMARK                         _______ _______ _______ _____ _____    ______ ____
ROOT
ATOM      1  N   UNL     1     -43.548-296.452  57.180  0.00  0.00    +0.000 N 
ATOM      2  C   UNL     1     -44.307-297.064  58.193  0.00  0.00    +0.000 C 
ATOM      3  O   UNL     1     -44.000-296.846  59.373  0.00  0.00    +0.000 OA
ATOM      4  H   UNL     1     -42.710-295.997  57.530  0.00  0.00    +0.000 HD
ENDROOT
BRANCH   2   5
ATOM      5  C   UNL     1     -45.479-297.913  57.879  0.00  0.00    +0.000 A 
ATOM      6  C   UNL     1     -46.780-297.495  57.632  0.00  0.00    +0.000 A 
ATOM      7  N   UNL     1     -47.444-298.596  57.131  0.00  0.00    +0.000 N 
ATOM      8  C   UNL     1     -48.758-298.753  56.698  0.00  0.00    +0.000 A 
ATOM      9  C   UNL     1     -49.150-299.938  56.206  0.00  0.00    +0.000 A 
ATOM     10  C   UNL     1     -48.076-300.965  56.096  0.00  0.00    +0.000 A 
ATOM     11  N   UNL     1     -46.853-300.840  56.509  0.00  0.00    +0.000 NA
ATOM     12  C   UNL     1     -46.535-299.651  57.103  0.00  0.00    +0.000 A 
ATOM     13  N   UNL     1     -45.400-299.286  57.665  0.00  0.00    +0.000 NA
ENDBRANCH   2   5
BRANCH   1  20
ATOM     14  C   UNL     1     -43.456-297.452  54.896  0.00  0.00    +0.000 A 
ATOM     15  C   UNL     1     -43.869-297.346  53.548  0.00  0.00    +0.000 A 
ATOM     16  C   UNL     1     -44.442-296.192  53.021  0.00  0.00    +0.000 A 
ATOM     17  C   UNL     1     -44.654-295.144  53.863  0.00  0.00    +0.000 A 
ATOM     18  F   UNL     1     -45.248-294.024  53.435  0.00  0.00    +0.000 F 
ATOM     19  C   UNL     1     -44.245-295.232  55.177  0.00  0.00    +0.000 A 
ATOM     20  C   UNL     1     -43.750-296.389  55.770  0.00  0.00    +0.000 A 
BRANCH  14  21
ATOM     21  O   UNL     1     -42.869-298.608  55.358  0.00  0.00    +0.000 OA
BRANCH  21  23
ATOM     22  C   UNL     1     -43.076-301.121  55.552  0.00  0.00    +0.000 C 
ATOM     23  C   UNL     1     -43.303-299.847  54.743  0.00  0.00    +0.000 C 
ENDBRANCH  21  23
ENDBRANCH  14  21
ENDBRANCH   1  20
TORSDOF 4
ENDMDL
MODEL 7
REMARK VINA RESULT:     0.001      4.063      6.098
REMARK INTER + INTRA:          -0.986
REMARK INTER:                   0.000
REMARK INTRA:                  -0.986
REMARK UNBOUND:                -0.986
REMARK  Name = 
REMARK  5 active torsions:
REMARK  status: ('A' for Active; 'I' for Inactive)
REMARK    1  A    between atoms: C_1  and  C_2
REMARK    2  A    between atoms: C_2  and  O_3
REMARK    3  A    between atoms: O_3  and  C_4
REMARK    4  A    between atoms: C_10  and  N_11
REMARK    5  A    between atoms: C_12  and  C_14
REMARK                            x       y       z     vdW  Elec       q    Type
REMARK                         _______ _______ _______ _____ _____    ______ ____
ROOT
ATOM      1  N   UNL     1     -42.619-297.187  63.035  0.00  0.00    +0.000 N 
ATOM      2  C   UNL     1     -43.137-295.947  63.446  0.00  0.00    +0.000 C 
ATOM      3  O   UNL     1     -44.073-295.455  62.801  0.00  0.00    +0.000 OA
ATOM      4  H   UNL     1     -42.982-297.492  62.136  0.00  0.00    +0.000 HD
ENDROOT
BRANCH   2   5
ATOM      5  C   UNL     1     -42.622-295.251  64.647  0.00  0.00    +0.000 A 
ATOM      6  C   UNL     1     -43.000-295.458  65.968  0.00  0.00    +0.000 A 
ATOM      7  N   UNL     1     -42.073-294.786  66.738  0.00  0.00    +0.000 N 
ATOM      8  C   UNL     1     -41.948-294.664  68.119  0.00  0.00    +0.000 A 
ATOM      9  C   UNL     1     -40.912-293.977  68.627  0.00  0.00    +0.000 A 
ATOM     10  C   UNL     1     -39.932-293.477  67.622  0.00  0.00    +0.000 A 
ATOM     11  N   UNL     1     -40.042-293.568  66.334  0.00  0.00    +0.000 NA
ATOM     12  C   UNL     1     -41.171-294.180  65.866  0.00  0.00    +0.000 A 
ATOM     13  N   UNL     1     -41.564-294.347  64.619  0.00  0.00    +0.000 NA
ENDBRANCH   2   5
BRANCH   1  20
ATOM     14  C   UNL     1     -40.282-297.835  63.622  0.00  0.00    +0.000 A 
ATOM     15  C   UNL     1     -39.456-298.656  64.423  0.00  0.00    +0.000 A 
ATOM     16  C   UNL     1     -39.939-299.745  65.143  0.00  0.00    +0.000 A 
ATOM     17  C   UNL     1     -41.278-299.990  65.105  0.00  0.00    +0.000 A 
ATOM     18  F   UNL     1     -41.817-300.988  65.814  0.00  0.00    +0.000 F 
ATOM     19  C   UNL     1     -42.092-299.203  64.318  0.00  0.00    +0.000 A 
ATOM     20  C   UNL     1     -41.672-298.056  63.653  0.00  0.00    +0.000 A 
BRANCH  14  21
ATOM     21  O   UNL     1     -39.746-296.788  62.909  0.00  0.00    +0.000 OA
BRANCH  21  23
ATOM     22  C   UNL     1     -38.318-294.703  63.017  0.00  0.00    +0.000 C 
ATOM     23  C   UNL     1     -38.596-296.127  63.493  0.00  0.00    +0.000 C 
ENDBRANCH  21  23
ENDBRANCH  14  21
ENDBRANCH   1  20
TORSDOF 4
ENDMDL
MODEL 8
REMARK VINA RESULT:     0.001      9.788     12.043
REMARK INTER + INTRA:          -0.986
REMARK INTER:                   0.000
REMARK INTRA:                  -0.986
REMARK UNBOUND:                -0.986
REMARK  Name = 
REMARK  5 active torsions:
REMARK  status: ('A' for Active; 'I' for Inactive)
REMARK    1  A    between atoms: C_1  and  C_2
REMARK    2  A    between atoms: C_2  and  O_3
REMARK    3  A    between atoms: O_3  and  C_4
REMARK    4  A    between atoms: C_10  and  N_11
REMARK    5  A    between atoms: C_12  and  C_14
REMARK                            x       y       z     vdW  Elec       q    Type
REMARK                         _______ _______ _______ _____ _____    ______ ____
ROOT
ATOM      1  N   UNL     1     -39.777-300.613  55.079  0.00  0.00    +0.000 N 
ATOM      2  C   UNL     1     -40.991-300.403  54.400  0.00  0.00    +0.000 C 
ATOM      3  O   UNL     1     -41.103-299.392  53.694  0.00  0.00    +0.000 OA
ATOM      4  H   UNL     1     -39.151-299.814  55.033  0.00  0.00    +0.000 HD
ENDROOT
BRANCH   2   5
ATOM      5  C   UNL     1     -42.101-301.378  54.477  0.00  0.00    +0.000 A 
ATOM      6  C   UNL     1     -42.270-302.525  53.712  0.00  0.00    +0.000 A 
ATOM      7  N   UNL     1     -43.283-303.240  54.316  0.00  0.00    +0.000 N 
ATOM      8  C   UNL     1     -43.856-304.468  53.993  0.00  0.00    +0.000 A 
ATOM      9  C   UNL     1     -44.817-304.972  54.782  0.00  0.00    +0.000 A 
ATOM     10  C   UNL     1     -45.115-304.175  56.005  0.00  0.00    +0.000 A 
ATOM     11  N   UNL     1     -44.604-303.023  56.312  0.00  0.00    +0.000 NA
ATOM     12  C   UNL     1     -43.711-302.502  55.418  0.00  0.00    +0.000 A 
ATOM     13  N   UNL     1     -43.100-301.335  55.446  0.00  0.00    +0.000 NA
ENDBRANCH   2   5
BRANCH   1  20
ATOM     14  C   UNL     1     -39.712-302.020  57.139  0.00  0.00    +0.000 A 
ATOM     15  C   UNL     1     -39.324-303.254  57.707  0.00  0.00    +0.000 A 
ATOM     16  C   UNL     1     -38.460-304.142  57.074  0.00  0.00    +0.000 A 
ATOM     17  C   UNL     1     -38.015-303.819  55.828  0.00  0.00    +0.000 A 
ATOM     18  F   UNL     1     -37.225-304.650  55.140  0.00  0.00    +0.000 F 
ATOM     19  C   UNL     1     -38.378-302.612  55.268  0.00  0.00    +0.000 A 
ATOM     20  C   UNL     1     -39.304-301.734  55.822  0.00  0.00    +0.000 A 
BRANCH  14  21
ATOM     21  O   UNL     1     -40.548-301.167  57.822  0.00  0.00    +0.000 OA
BRANCH  21  23
ATOM     22  C   UNL     1     -42.750-300.937  59.044  0.00  0.00    +0.000 C 
ATOM     23  C   UNL     1     -41.527-301.781  58.698  0.00  0.00    +0.000 C 
ENDBRANCH  21  23
ENDBRANCH  14  21
ENDBRANCH   1  20
TORSDOF 4
ENDMDL
MODEL 9
REMARK VINA RESULT:     0.001     10.236     13.056
REMARK INTER + INTRA:          -0.986
REMARK INTER:                   0.000
REMARK INTRA:                  -0.986
REMARK UNBOUND:                -0.986
REMARK  Name = 
REMARK  5 active torsions:
REMARK  status: ('A' for Active; 'I' for Inactive)
REMARK    1  A    between atoms: C_1  and  C_2
REMARK    2  A    between atoms: C_2  and  O_3
REMARK    3  A    between atoms: O_3  and  C_4
REMARK    4  A    between atoms: C_10  and  N_11
REMARK    5  A    between atoms: C_12  and  C_14
REMARK                            x       y       z     vdW  Elec       q    Type
REMARK                         _______ _______ _______ _____ _____    ______ ____
ROOT
ATOM      1  N   UNL     1     -48.913-295.606  61.158  0.00  0.00    +0.000 N 
ATOM      2  C   UNL     1     -48.253-296.834  60.977  0.00  0.00    +0.000 C 
ATOM      3  O   UNL     1     -47.098-296.822  60.528  0.00  0.00    +0.000 OA
ATOM      4  H   UNL     1     -48.412-294.821  60.752  0.00  0.00    +0.000 HD
ENDROOT
BRANCH   2   5
ATOM      5  C   UNL     1     -48.886-298.118  61.353  0.00  0.00    +0.000 A 
ATOM      6  C   UNL     1     -48.911-298.710  62.609  0.00  0.00    +0.000 A 
ATOM      7  N   UNL     1     -49.829-299.736  62.528  0.00  0.00    +0.000 N 
ATOM      8  C   UNL     1     -50.269-300.648  63.485  0.00  0.00    +0.000 A 
ATOM      9  C   UNL     1     -51.219-301.537  63.156  0.00  0.00    +0.000 A 
ATOM     10  C   UNL     1     -51.776-301.390  61.781  0.00  0.00    +0.000 A 
ATOM     11  N   UNL     1     -51.366-300.559  60.874  0.00  0.00    +0.000 NA
ATOM     12  C   UNL     1     -50.322-299.750  61.225  0.00  0.00    +0.000 A 
ATOM     13  N   UNL     1     -49.673-298.872  60.486  0.00  0.00    +0.000 NA
ENDBRANCH   2   5
BRANCH   1  20
ATOM     14  C   UNL     1     -51.406-295.506  61.176  0.00  0.00    +0.000 A 
ATOM     15  C   UNL     1     -52.570-295.339  61.960  0.00  0.00    +0.000 A 
ATOM     16  C   UNL     1     -52.541-294.860  63.267  0.00  0.00    +0.000 A 
ATOM     17  C   UNL     1     -51.326-294.592  63.820  0.00  0.00    +0.000 A 
ATOM     18  F   UNL     1     -51.221-294.179  65.088  0.00  0.00    +0.000 F 
ATOM     19  C   UNL     1     -50.185-294.741  63.062  0.00  0.00    +0.000 A 
ATOM     20  C   UNL     1     -50.155-295.297  61.786  0.00  0.00    +0.000 A 
BRANCH  14  21
ATOM     21  O   UNL     1     -51.496-295.957  59.880  0.00  0.00    +0.000 OA
BRANCH  21  23
ATOM     22  C   UNL     1     -52.402-297.760  58.355  0.00  0.00    +0.000 C 
ATOM     23  C   UNL     1     -52.579-296.874  59.585  0.00  0.00    +0.000 C 
ENDBRANCH  21  23
ENDBRANCH  14  21
ENDBRANCH   1  20
TORSDOF 4
ENDMDL
MODEL 10
REMARK VINA RESULT:     0.001     11.947     13.937
REMARK INTER + INTRA:          -0.986
REMARK INTER:                   0.000
REMARK INTRA:                  -0.986
REMARK UNBOUND:                -0.986
REMARK  Name = 
REMARK  5 active torsions:
REMARK  status: ('A' for Active; 'I' for Inactive)
REMARK    1  A    between atoms: C_1  and  C_2
REMARK    2  A    between atoms: C_2  and  O_3
REMARK    3  A    between atoms: O_3  and  C_4
REMARK    4  A    between atoms: C_10  and  N_11
REMARK    5  A    between atoms: C_12  and  C_14
REMARK                            x       y       z     vdW  Elec       q    Type
REMARK                         _______ _______ _______ _____ _____    ______ ____
ROOT
ATOM      1  N   UNL     1     -52.414-298.019  64.905  0.00  0.00    +0.000 N 
ATOM      2  C   UNL     1     -52.974-299.299  64.743  0.00  0.00    +0.000 C 
ATOM      3  O   UNL     1     -53.862-299.658  65.529  0.00  0.00    +0.000 OA
ATOM      4  H   UNL     1     -52.703-297.564  65.766  0.00  0.00    +0.000 HD
ENDROOT
BRANCH   2   5
ATOM      5  C   UNL     1     -52.561-300.192  63.637  0.00  0.00    +0.000 A 
ATOM      6  C   UNL     1     -53.039-300.195  62.333  0.00  0.00    +0.000 A 
ATOM      7  N   UNL     1     -52.182-301.003  61.616  0.00  0.00    +0.000 N 
ATOM      8  C   UNL     1     -52.166-301.351  60.267  0.00  0.00    +0.000 A 
ATOM      9  C   UNL     1     -51.180-302.134  59.803  0.00  0.00    +0.000 A 
ATOM     10  C   UNL     1     -50.128-302.486  60.798  0.00  0.00    +0.000 A 
ATOM     11  N   UNL     1     -50.137-302.184  62.060  0.00  0.00    +0.000 NA
ATOM     12  C   UNL     1     -51.220-301.479  62.504  0.00  0.00    +0.000 A 
ATOM     13  N   UNL     1     -51.513-301.103  63.733  0.00  0.00    +0.000 NA
ENDBRANCH   2   5
BRANCH   1  20
ATOM     14  C   UNL     1     -50.124-297.527  64.044  0.00  0.00    +0.000 A 
ATOM     15  C   UNL     1     -49.356-296.867  63.059  0.00  0.00    +0.000 A 
ATOM     16  C   UNL     1     -49.883-295.899  62.209  0.00  0.00    +0.000 A 
ATOM     17  C   UNL     1     -51.212-295.621  62.307  0.00  0.00    +0.000 A 
ATOM     18  F   UNL     1     -51.796-294.741  61.487  0.00  0.00    +0.000 F 
ATOM     19  C   UNL     1     -51.970-296.251  63.272  0.00  0.00    +0.000 A 
ATOM     20  C   UNL     1     -51.510-297.284  64.083  0.00  0.00    +0.000 A 
BRANCH  14  21
ATOM     21  O   UNL     1     -49.545-298.456  64.877  0.00  0.00    +0.000 OA
BRANCH  21  23
ATOM     22  C   UNL     1     -48.149-300.562  65.005  0.00  0.00    +0.000 C 
ATOM     23  C   UNL     1     -48.449-299.229  64.325  0.00  0.00    +0.000 C 
ENDBRANCH  21  23
ENDBRANCH  14  21
ENDBRANCH   1  20
TORSDOF 4
ENDMDL
