MODEL 1
REMARK VINA RESULT:     0.000      0.000      0.000
REMARK INTER + INTRA:          -1.883
REMARK INTER:                   0.000
REMARK INTRA:                  -1.883
REMARK UNBOUND:                -1.883
REMARK  Name = 
REMARK  8 active torsions:
REMARK  status: ('A' for Active; 'I' for Inactive)
REMARK    1  A    between atoms: C_1  and  C_2
REMARK    2  A    between atoms: C_2  and  C_3
REMARK    3  A    between atoms: C_3  and  N_4
REMARK    4  A    between atoms: N_4  and  C_5
REMARK    5  A    between atoms: C_5  and  C_6
REMARK    6  A    between atoms: C_12  and  C_13
REMARK    7  A    between atoms: C_13  and  N_14
REMARK    8  A    between atoms: C_24  and  C_25
REMARK                            x       y       z     vdW  Elec       q    Type
REMARK                         _______ _______ _______ _____ _____    ______ ____
ROOT
ATOM      1  C   UNL     1     -46.354-297.329  62.894  0.00  0.00    +0.000 C 
ATOM      2  O   UNL     1     -46.816-298.341  63.417  0.00  0.00    +0.000 OA
ATOM      3  N   UNL     1     -47.057-296.137  62.831  0.00  0.00    +0.000 N 
ATOM      4  C   UNL     1     -48.152-295.868  63.760  0.00  0.00    +0.000 C 
ATOM      5  C   UNL     1     -49.488-296.084  63.158  0.00  0.00    +0.000 C 
ATOM      6  C   UNL     1     -49.491-295.234  61.957  0.00  0.00    +0.000 C 
ATOM      7  C   UNL     1     -48.428-295.576  60.913  0.00  0.00    +0.000 C 
ATOM      8  C   UNL     1     -47.092-295.416  61.587  0.00  0.00    +0.000 C 
ENDROOT
BRANCH   1   9
ATOM      9  C   UNL     1     -44.862-297.187  62.557  0.00  0.00    +0.000 C 
BRANCH   9  10
ATOM     10  N   UNL     1     -44.253-298.147  61.630  0.00  0.00    +0.000 N 
ATOM     11  C   UNL     1     -44.575-297.934  60.291  0.00  0.00    +0.000 A 
ATOM     12  C   UNL     1     -44.992-298.969  59.471  0.00  0.00    +0.000 A 
ATOM     13  C   UNL     1     -44.772-298.908  58.093  0.00  0.00    +0.000 A 
ATOM     14  C   UNL     1     -44.589-297.677  57.509  0.00  0.00    +0.000 A 
ATOM     15  C   UNL     1     -44.535-296.603  58.364  0.00  0.00    +0.000 A 
ATOM     16  N   UNL     1     -44.454-296.720  59.729  0.00  0.00    +0.000 NA
BRANCH  14  17
ATOM     17  C   UNL     1     -44.592-297.546  56.075  0.00  0.00    +0.000 C 
ATOM     18  N   UNL     1     -44.514-297.445  54.944  0.00  0.00    +0.000 NA
ENDBRANCH  14  17
BRANCH  10  19
ATOM     19  C   UNL     1     -43.188-299.054  62.176  0.00  0.00    +0.000 C 
BRANCH  19  21
ATOM     20  C   UNL     1     -44.627-301.042  62.580  0.00  0.00    +0.000 C 
ATOM     21  C   UNL     1     -43.687-300.040  63.225  0.00  0.00    +0.000 C 
ENDBRANCH  19  21
ENDBRANCH  10  19
ENDBRANCH   9  10
ENDBRANCH   1   9
BRANCH   7  22
ATOM     22  C   UNL     1     -48.693-296.886  60.134  0.00  0.00    +0.000 C 
BRANCH  22  23
ATOM     23  N   UNL     1     -48.046-297.112  58.808  0.00  0.00    +0.000 NA
ATOM     24  C   UNL     1     -48.204-295.962  57.881  0.00  0.00    +0.000 C 
ATOM     25  C   UNL     1     -49.608-295.728  57.296  0.00  0.00    +0.000 C 
ATOM     26  O   UNL     1     -49.991-296.905  56.535  0.00  0.00    +0.000 OA
ATOM     27  C   UNL     1     -49.876-298.030  57.394  0.00  0.00    +0.000 C 
ATOM     28  C   UNL     1     -48.510-298.319  58.099  0.00  0.00    +0.000 C 
ENDBRANCH  22  23
ENDBRANCH   7  22
TORSDOF 7
ENDMDL
MODEL 2
REMARK VINA RESULT:     0.000      6.157      7.526
REMARK INTER + INTRA:          -1.883
REMARK INTER:                   0.000
REMARK INTRA:                  -1.883
REMARK UNBOUND:                -1.883
REMARK  Name = 
REMARK  8 active torsions:
REMARK  status: ('A' for Active; 'I' for Inactive)
REMARK    1  A    between atoms: C_1  and  C_2
REMARK    2  A    between atoms: C_2  and  C_3
REMARK    3  A    between atoms: C_3  and  N_4
REMARK    4  A    between atoms: N_4  and  C_5
REMARK    5  A    between atoms: C_5  and  C_6
REMARK    6  A    between atoms: C_12  and  C_13
REMARK    7  A    between atoms: C_13  and  N_14
REMARK    8  A    between atoms: C_24  and  C_25
REMARK                            x       y       z     vdW  Elec       q    Type
REMARK                         _______ _______ _______ _____ _____    ______ ____
ROOT
ATOM      1  C   UNL     1     -50.602-304.978  60.755  0.00  0.00    +0.000 C 
ATOM      2  O   UNL     1     -51.357-305.069  59.788  0.00  0.00    +0.000 OA
ATOM      3  N   UNL     1     -50.826-304.088  61.793  0.00  0.00    +0.000 N 
ATOM      4  C   UNL     1     -52.164-303.554  62.041  0.00  0.00    +0.000 C 
ATOM      5  C   UNL     1     -52.347-302.182  61.517  0.00  0.00    +0.000 C 
ATOM      6  C   UNL     1     -51.260-301.405  62.136  0.00  0.00    +0.000 C 
ATOM      7  C   UNL     1     -49.847-301.871  61.790  0.00  0.00    +0.000 C 
ATOM      8  C   UNL     1     -49.729-303.291  62.273  0.00  0.00    +0.000 C 
ENDROOT
BRANCH   1   9
ATOM      9  C   UNL     1     -49.541-306.042  61.070  0.00  0.00    +0.000 C 
BRANCH   9  10
ATOM     10  N   UNL     1     -48.502-306.320  60.072  0.00  0.00    +0.000 N 
ATOM     11  C   UNL     1     -47.505-305.349  59.998  0.00  0.00    +0.000 A 
ATOM     12  C   UNL     1     -47.087-304.830  58.784  0.00  0.00    +0.000 A 
ATOM     13  C   UNL     1     -45.791-304.331  58.640  0.00  0.00    +0.000 A 
ATOM     14  C   UNL     1     -45.112-303.926  59.765  0.00  0.00    +0.000 A 
ATOM     15  C   UNL     1     -45.743-304.149  60.965  0.00  0.00    +0.000 A 
ATOM     16  N   UNL     1     -46.878-304.906  61.100  0.00  0.00    +0.000 NA
BRANCH  14  17
ATOM     17  C   UNL     1     -43.877-303.197  59.645  0.00  0.00    +0.000 C 
ATOM     18  N   UNL     1     -42.861-302.689  59.565  0.00  0.00    +0.000 NA
ENDBRANCH  14  17
BRANCH  10  19
ATOM     19  C   UNL     1     -48.487-307.688  59.453  0.00  0.00    +0.000 C 
BRANCH  19  21
ATOM     20  C   UNL     1     -49.707-307.113  57.363  0.00  0.00    +0.000 C 
ATOM     21  C   UNL     1     -49.709-307.998  58.597  0.00  0.00    +0.000 C 
ENDBRANCH  19  21
ENDBRANCH  10  19
ENDBRANCH   9  10
ENDBRANCH   1   9
BRANCH   7  22
ATOM     22  C   UNL     1     -49.406-301.560  60.340  0.00  0.00    +0.000 C 
BRANCH  22  23
ATOM     23  N   UNL     1     -47.954-301.512  59.993  0.00  0.00    +0.000 NA
ATOM     24  C   UNL     1     -47.162-300.670  60.926  0.00  0.00    +0.000 C 
ATOM     25  C   UNL     1     -47.363-299.148  60.831  0.00  0.00    +0.000 C 
ATOM     26  O   UNL     1     -46.989-298.718  59.495  0.00  0.00    +0.000 OA
ATOM     27  C   UNL     1     -47.743-299.484  58.567  0.00  0.00    +0.000 C 
ATOM     28  C   UNL     1     -47.668-301.046  58.625  0.00  0.00    +0.000 C 
ENDBRANCH  22  23
ENDBRANCH   7  22
TORSDOF 7
ENDMDL
MODEL 3
REMARK VINA RESULT:     0.000      5.042      7.197
REMARK INTER + INTRA:          -1.882
REMARK INTER:                   0.000
REMARK INTRA:                  -1.882
REMARK UNBOUND:                -1.883
REMARK  Name = 
REMARK  8 active torsions:
REMARK  status: ('A' for Active; 'I' for Inactive)
REMARK    1  A    between atoms: C_1  and  C_2
REMARK    2  A    between atoms: C_2  and  C_3
REMARK    3  A    between atoms: C_3  and  N_4
REMARK    4  A    between atoms: N_4  and  C_5
REMARK    5  A    between atoms: C_5  and  C_6
REMARK    6  A    between atoms: C_12  and  C_13
REMARK    7  A    between atoms: C_13  and  N_14
REMARK    8  A    between atoms: C_24  and  C_25
REMARK                            x       y       z     vdW  Elec       q    Type
REMARK                         _______ _______ _______ _____ _____    ______ ____
ROOT
ATOM      1  C   UNL     1     -46.303-295.394  68.819  0.00  0.00    +0.000 C 
ATOM      2  O   UNL     1     -46.312-296.506  69.345  0.00  0.00    +0.000 OA
ATOM      3  N   UNL     1     -47.049-294.334  69.308  0.00  0.00    +0.000 N 
ATOM      4  C   UNL     1     -47.506-294.322  70.696  0.00  0.00    +0.000 C 
ATOM      5  C   UNL     1     -48.928-294.710  70.840  0.00  0.00    +0.000 C 
ATOM      6  C   UNL     1     -49.653-293.784  69.956  0.00  0.00    +0.000 C 
ATOM      7  C   UNL     1     -49.276-293.866  68.477  0.00  0.00    +0.000 C 
ATOM      8  C   UNL     1     -47.811-293.537  68.385  0.00  0.00    +0.000 C 
ENDROOT
BRANCH   1   9
ATOM      9  C   UNL     1     -45.240-294.981  67.790  0.00  0.00    +0.000 C 
BRANCH   9  10
ATOM     10  N   UNL     1     -45.121-295.755  66.550  0.00  0.00    +0.000 N 
ATOM     11  C   UNL     1     -46.122-295.497  65.616  0.00  0.00    +0.000 A 
ATOM     12  C   UNL     1     -46.802-296.523  64.980  0.00  0.00    +0.000 A 
ATOM     13  C   UNL     1     -47.354-296.323  63.713  0.00  0.00    +0.000 A 
ATOM     14  C   UNL     1     -47.634-295.038  63.312  0.00  0.00    +0.000 A 
ATOM     15  C   UNL     1     -47.245-294.038  64.169  0.00  0.00    +0.000 A 
ATOM     16  N   UNL     1     -46.442-294.242  65.263  0.00  0.00    +0.000 NA
BRANCH  14  17
ATOM     17  C   UNL     1     -48.410-294.802  62.122  0.00  0.00    +0.000 C 
ATOM     18  N   UNL     1     -48.955-294.593  61.145  0.00  0.00    +0.000 NA
ENDBRANCH  14  17
BRANCH  10  19
ATOM     19  C   UNL     1     -43.842-296.510  66.327  0.00  0.00    +0.000 C 
BRANCH  19  21
ATOM     20  C   UNL     1     -44.636-298.735  67.105  0.00  0.00    +0.000 C 
ATOM     21  C   UNL     1     -43.605-297.642  67.320  0.00  0.00    +0.000 C 
ENDBRANCH  19  21
ENDBRANCH  10  19
ENDBRANCH   9  10
ENDBRANCH   1   9
BRANCH   7  22
ATOM     22  C   UNL     1     -49.780-295.139  67.756  0.00  0.00    +0.000 C 
BRANCH  22  23
ATOM     23  N   UNL     1     -49.914-295.154  66.269  0.00  0.00    +0.000 NA
ATOM     24  C   UNL     1     -50.657-293.980  65.742  0.00  0.00    +0.000 C 
ATOM     25  C   UNL     1     -52.173-293.942  66.002  0.00  0.00    +0.000 C 
ATOM     26  O   UNL     1     -52.776-295.106  65.378  0.00  0.00    +0.000 OA
ATOM     27  C   UNL     1     -52.109-296.258  65.874  0.00  0.00    +0.000 C 
ATOM     28  C   UNL     1     -50.555-296.365  65.725  0.00  0.00    +0.000 C 
ENDBRANCH  22  23
ENDBRANCH   7  22
TORSDOF 7
ENDMDL
MODEL 4
REMARK VINA RESULT:     0.000      7.131     10.642
REMARK INTER + INTRA:          -1.882
REMARK INTER:                   0.000
REMARK INTRA:                  -1.882
REMARK UNBOUND:                -1.883
REMARK  Name = 
REMARK  8 active torsions:
REMARK  status: ('A' for Active; 'I' for Inactive)
REMARK    1  A    between atoms: C_1  and  C_2
REMARK    2  A    between atoms: C_2  and  C_3
REMARK    3  A    between atoms: C_3  and  N_4
REMARK    4  A    between atoms: N_4  and  C_5
REMARK    5  A    between atoms: C_5  and  C_6
REMARK    6  A    between atoms: C_12  and  C_13
REMARK    7  A    between atoms: C_13  and  N_14
REMARK    8  A    between atoms: C_24  and  C_25
REMARK                            x       y       z     vdW  Elec       q    Type
REMARK                         _______ _______ _______ _____ _____    ______ ____
ROOT
ATOM      1  C   UNL     1     -46.581-303.991  63.419  0.00  0.00    +0.000 C 
ATOM      2  O   UNL     1     -47.055-305.121  63.305  0.00  0.00    +0.000 OA
ATOM      3  N   UNL     1     -45.218-303.763  63.516  0.00  0.00    +0.000 N 
ATOM      4  C   UNL     1     -44.260-304.754  63.031  0.00  0.00    +0.000 C 
ATOM      5  C   UNL     1     -43.672-305.570  64.118  0.00  0.00    +0.000 C 
ATOM      6  C   UNL     1     -43.104-304.585  65.052  0.00  0.00    +0.000 C 
ATOM      7  C   UNL     1     -44.111-303.613  65.666  0.00  0.00    +0.000 C 
ATOM      8  C   UNL     1     -44.735-302.858  64.524  0.00  0.00    +0.000 C 
ENDROOT
BRANCH   1   9
ATOM      9  C   UNL     1     -47.404-302.725  63.141  0.00  0.00    +0.000 C 
BRANCH   9  10
ATOM     10  N   UNL     1     -48.613-302.480  63.934  0.00  0.00    +0.000 N 
ATOM     11  C   UNL     1     -48.366-302.033  65.231  0.00  0.00    +0.000 A 
ATOM     12  C   UNL     1     -49.003-302.595  66.325  0.00  0.00    +0.000 A 
ATOM     13  C   UNL     1     -49.209-301.842  67.483  0.00  0.00    +0.000 A 
ATOM     14  C   UNL     1     -48.399-300.756  67.715  0.00  0.00    +0.000 A 
ATOM     15  C   UNL     1     -47.509-300.440  66.717  0.00  0.00    +0.000 A 
ATOM     16  N   UNL     1     -47.531-301.010  65.470  0.00  0.00    +0.000 NA
BRANCH  14  17
ATOM     17  C   UNL     1     -48.419-300.095  68.994  0.00  0.00    +0.000 C 
ATOM     18  N   UNL     1     -48.462-299.507  69.968  0.00  0.00    +0.000 NA
ENDBRANCH  14  17
BRANCH  10  19
ATOM     19  C   UNL     1     -49.928-302.486  63.208  0.00  0.00    +0.000 C 
BRANCH  19  21
ATOM     20  C   UNL     1     -50.589-304.822  63.751  0.00  0.00    +0.000 C 
ATOM     21  C   UNL     1     -50.312-303.841  62.626  0.00  0.00    +0.000 C 
ENDBRANCH  19  21
ENDBRANCH  10  19
ENDBRANCH   9  10
ENDBRANCH   1   9
BRANCH   7  22
ATOM     22  C   UNL     1     -45.052-304.245  66.718  0.00  0.00    +0.000 C 
BRANCH  22  23
ATOM     23  N   UNL     1     -45.740-303.381  67.723  0.00  0.00    +0.000 NA
ATOM     24  C   UNL     1     -44.816-302.442  68.410  0.00  0.00    +0.000 C 
ATOM     25  C   UNL     1     -43.831-303.051  69.423  0.00  0.00    +0.000 C 
ATOM     26  O   UNL     1     -44.596-303.696  70.476  0.00  0.00    +0.000 OA
ATOM     27  C   UNL     1     -45.479-304.624  69.863  0.00  0.00    +0.000 C 
ATOM     28  C   UNL     1     -46.474-304.121  68.765  0.00  0.00    +0.000 C 
ENDBRANCH  22  23
ENDBRANCH   7  22
TORSDOF 7
ENDMDL
MODEL 5
REMARK VINA RESULT:     0.001      5.173      8.295
REMARK INTER + INTRA:          -1.882
REMARK INTER:                   0.000
REMARK INTRA:                  -1.882
REMARK UNBOUND:                -1.883
REMARK  Name = 
REMARK  8 active torsions:
REMARK  status: ('A' for Active; 'I' for Inactive)
REMARK    1  A    between atoms: C_1  and  C_2
REMARK    2  A    between atoms: C_2  and  C_3
REMARK    3  A    between atoms: C_3  and  N_4
REMARK    4  A    between atoms: N_4  and  C_5
REMARK    5  A    between atoms: C_5  and  C_6
REMARK    6  A    between atoms: C_12  and  C_13
REMARK    7  A    between atoms: C_13  and  N_14
REMARK    8  A    between atoms: C_24  and  C_25
REMARK                            x       y       z     vdW  Elec       q    Type
REMARK                         _______ _______ _______ _____ _____    ______ ____
ROOT
ATOM      1  C   UNL     1     -44.197-300.167  66.396  0.00  0.00    +0.000 C 
ATOM      2  O   UNL     1     -43.914-299.474  67.372  0.00  0.00    +0.000 OA
ATOM      3  N   UNL     1     -43.891-301.516  66.328  0.00  0.00    +0.000 N 
ATOM      4  C   UNL     1     -43.652-302.289  67.545  0.00  0.00    +0.000 C 
ATOM      5  C   UNL     1     -42.214-302.509  67.818  0.00  0.00    +0.000 C 
ATOM      6  C   UNL     1     -41.699-303.139  66.591  0.00  0.00    +0.000 C 
ATOM      7  C   UNL     1     -41.829-302.296  65.323  0.00  0.00    +0.000 C 
ATOM      8  C   UNL     1     -43.297-302.034  65.125  0.00  0.00    +0.000 C 
ENDROOT
BRANCH   1   9
ATOM      9  C   UNL     1     -45.186-299.700  65.318  0.00  0.00    +0.000 C 
BRANCH   9  10
ATOM     10  N   UNL     1     -44.890-298.473  64.572  0.00  0.00    +0.000 N 
ATOM     11  C   UNL     1     -43.902-298.617  63.600  0.00  0.00    +0.000 A 
ATOM     12  C   UNL     1     -42.857-297.715  63.489  0.00  0.00    +0.000 A 
ATOM     13  C   UNL     1     -42.229-297.513  62.257  0.00  0.00    +0.000 A 
ATOM     14  C   UNL     1     -42.311-298.502  61.307  0.00  0.00    +0.000 A 
ATOM     15  C   UNL     1     -43.105-299.579  61.620  0.00  0.00    +0.000 A 
ATOM     16  N   UNL     1     -43.944-299.616  62.704  0.00  0.00    +0.000 NA
BRANCH  14  17
ATOM     17  C   UNL     1     -41.494-298.441  60.122  0.00  0.00    +0.000 C 
ATOM     18  N   UNL     1     -40.909-298.354  59.150  0.00  0.00    +0.000 NA
ENDBRANCH  14  17
BRANCH  10  19
ATOM     19  C   UNL     1     -45.828-297.313  64.750  0.00  0.00    +0.000 C 
BRANCH  19  21
ATOM     20  C   UNL     1     -44.493-296.071  66.442  0.00  0.00    +0.000 C 
ATOM     21  C   UNL     1     -45.832-296.726  66.156  0.00  0.00    +0.000 C 
ENDBRANCH  19  21
ENDBRANCH  10  19
ENDBRANCH   9  10
ENDBRANCH   1   9
BRANCH   7  22
ATOM     22  C   UNL     1     -40.862-301.090  65.253  0.00  0.00    +0.000 C 
BRANCH  22  23
ATOM     23  N   UNL     1     -40.529-300.473  63.935  0.00  0.00    +0.000 NA
ATOM     24  C   UNL     1     -40.126-301.471  62.911  0.00  0.00    +0.000 C 
ATOM     25  C   UNL     1     -38.748-302.132  63.089  0.00  0.00    +0.000 C 
ATOM     26  O   UNL     1     -37.732-301.094  63.053  0.00  0.00    +0.000 OA
ATOM     27  C   UNL     1     -38.067-300.126  64.036  0.00  0.00    +0.000 C 
ATOM     28  C   UNL     1     -39.474-299.444  63.990  0.00  0.00    +0.000 C 
ENDBRANCH  22  23
ENDBRANCH   7  22
TORSDOF 7
ENDMDL
MODEL 6
REMARK VINA RESULT:     0.001      4.494      6.722
REMARK INTER + INTRA:          -1.882
REMARK INTER:                   0.000
REMARK INTRA:                  -1.882
REMARK UNBOUND:                -1.883
REMARK  Name = 
REMARK  8 active torsions:
REMARK  status: ('A' for Active; 'I' for Inactive)
REMARK    1  A    between atoms: C_1  and  C_2
REMARK    2  A    between atoms: C_2  and  C_3
REMARK    3  A    between atoms: C_3  and  N_4
REMARK    4  A    between atoms: N_4  and  C_5
REMARK    5  A    between atoms: C_5  and  C_6
REMARK    6  A    between atoms: C_12  and  C_13
REMARK    7  A    between atoms: C_13  and  N_14
REMARK    8  A    between atoms: C_24  and  C_25
REMARK                            x       y       z     vdW  Elec       q    Type
REMARK                         _______ _______ _______ _____ _____    ______ ____
ROOT
ATOM      1  C   UNL     1     -44.970-296.757  63.743  0.00  0.00    +0.000 C 
ATOM      2  O   UNL     1     -44.055-296.664  64.561  0.00  0.00    +0.000 OA
ATOM      3  N   UNL     1     -45.775-295.681  63.404  0.00  0.00    +0.000 N 
ATOM      4  C   UNL     1     -45.318-294.311  63.620  0.00  0.00    +0.000 C 
ATOM      5  C   UNL     1     -45.897-293.692  64.835  0.00  0.00    +0.000 C 
ATOM      6  C   UNL     1     -47.352-293.824  64.657  0.00  0.00    +0.000 C 
ATOM      7  C   UNL     1     -47.868-295.258  64.551  0.00  0.00    +0.000 C 
ATOM      8  C   UNL     1     -47.200-295.871  63.350  0.00  0.00    +0.000 C 
ENDROOT
BRANCH   1   9
ATOM      9  C   UNL     1     -45.103-297.955  62.792  0.00  0.00    +0.000 C 
BRANCH   9  10
ATOM     10  N   UNL     1     -45.253-299.297  63.364  0.00  0.00    +0.000 N 
ATOM     11  C   UNL     1     -46.522-299.563  63.874  0.00  0.00    +0.000 A 
ATOM     12  C   UNL     1     -46.696-300.128  65.127  0.00  0.00    +0.000 A 
ATOM     13  C   UNL     1     -47.833-300.890  65.404  0.00  0.00    +0.000 A 
ATOM     14  C   UNL     1     -48.958-300.695  64.639  0.00  0.00    +0.000 A 
ATOM     15  C   UNL     1     -48.830-299.826  63.583  0.00  0.00    +0.000 A 
ATOM     16  N   UNL     1     -47.629-299.321  63.155  0.00  0.00    +0.000 NA
BRANCH  14  17
ATOM     17  C   UNL     1     -50.213-301.283  65.031  0.00  0.00    +0.000 C 
ATOM     18  N   UNL     1     -51.177-301.818  65.316  0.00  0.00    +0.000 NA
ENDBRANCH  14  17
BRANCH  10  19
ATOM     19  C   UNL     1     -44.149-300.283  63.110  0.00  0.00    +0.000 C 
BRANCH  19  21
ATOM     20  C   UNL     1     -42.946-299.984  65.266  0.00  0.00    +0.000 C 
ATOM     21  C   UNL     1     -42.820-299.911  63.755  0.00  0.00    +0.000 C 
ENDBRANCH  19  21
ENDBRANCH  10  19
ENDBRANCH   9  10
ENDBRANCH   1   9
BRANCH   7  22
ATOM     22  C   UNL     1     -47.837-296.050  65.879  0.00  0.00    +0.000 C 
BRANCH  22  23
ATOM     23  N   UNL     1     -48.712-297.247  66.058  0.00  0.00    +0.000 NA
ATOM     24  C   UNL     1     -50.126-296.995  65.681  0.00  0.00    +0.000 C 
ATOM     25  C   UNL     1     -50.948-296.099  66.624  0.00  0.00    +0.000 C 
ATOM     26  O   UNL     1     -50.993-296.730  67.932  0.00  0.00    +0.000 OA
ATOM     27  C   UNL     1     -49.655-296.969  68.343  0.00  0.00    +0.000 C 
ATOM     28  C   UNL     1     -48.710-297.809  67.421  0.00  0.00    +0.000 C 
ENDBRANCH  22  23
ENDBRANCH   7  22
TORSDOF 7
ENDMDL
MODEL 7
REMARK VINA RESULT:     0.001      8.937     11.916
REMARK INTER + INTRA:          -1.882
REMARK INTER:                   0.000
REMARK INTRA:                  -1.882
REMARK UNBOUND:                -1.883
REMARK  Name = 
REMARK  8 active torsions:
REMARK  status: ('A' for Active; 'I' for Inactive)
REMARK    1  A    between atoms: C_1  and  C_2
REMARK    2  A    between atoms: C_2  and  C_3
REMARK    3  A    between atoms: C_3  and  N_4
REMARK    4  A    between atoms: N_4  and  C_5
REMARK    5  A    between atoms: C_5  and  C_6
REMARK    6  A    between atoms: C_12  and  C_13
REMARK    7  A    between atoms: C_13  and  N_14
REMARK    8  A    between atoms: C_24  and  C_25
REMARK                            x       y       z     vdW  Elec       q    Type
REMARK                         _______ _______ _______ _____ _____    ______ ____
ROOT
ATOM      1  C   UNL     1     -42.884-302.830  54.298  0.00  0.00    +0.000 C 
ATOM      2  O   UNL     1     -43.254-303.114  53.160  0.00  0.00    +0.000 OA
ATOM      3  N   UNL     1     -42.033-301.768  54.560  0.00  0.00    +0.000 N 
ATOM      4  C   UNL     1     -41.901-300.667  53.608  0.00  0.00    +0.000 C 
ATOM      5  C   UNL     1     -40.679-300.763  52.777  0.00  0.00    +0.000 C 
ATOM      6  C   UNL     1     -39.579-300.857  53.750  0.00  0.00    +0.000 C 
ATOM      7  C   UNL     1     -39.632-302.071  54.678  0.00  0.00    +0.000 C 
ATOM      8  C   UNL     1     -40.920-301.972  55.448  0.00  0.00    +0.000 C 
ENDROOT
BRANCH   1   9
ATOM      9  C   UNL     1     -43.567-303.400  55.550  0.00  0.00    +0.000 C 
BRANCH   9  10
ATOM     10  N   UNL     1     -43.591-304.854  55.740  0.00  0.00    +0.000 N 
ATOM     11  C   UNL     1     -42.378-305.397  56.157  0.00  0.00    +0.000 A 
ATOM     12  C   UNL     1     -41.838-306.518  55.548  0.00  0.00    +0.000 A 
ATOM     13  C   UNL     1     -40.992-307.369  56.263  0.00  0.00    +0.000 A 
ATOM     14  C   UNL     1     -40.334-306.872  57.362  0.00  0.00    +0.000 A 
ATOM     15  C   UNL     1     -40.653-305.587  57.730  0.00  0.00    +0.000 A 
ATOM     16  N   UNL     1     -41.701-304.881  57.195  0.00  0.00    +0.000 NA
BRANCH  14  17
ATOM     17  C   UNL     1     -39.284-307.634  57.987  0.00  0.00    +0.000 C 
ATOM     18  N   UNL     1     -38.507-308.261  58.534  0.00  0.00    +0.000 NA
ENDBRANCH  14  17
BRANCH  10  19
ATOM     19  C   UNL     1     -44.932-305.530  55.720  0.00  0.00    +0.000 C 
BRANCH  19  21
ATOM     20  C   UNL     1     -44.876-306.295  53.354  0.00  0.00    +0.000 C 
ATOM     21  C   UNL     1     -45.641-305.469  54.372  0.00  0.00    +0.000 C 
ENDBRANCH  19  21
ENDBRANCH  10  19
ENDBRANCH   9  10
ENDBRANCH   1   9
BRANCH   7  22
ATOM     22  C   UNL     1     -39.300-303.417  53.992  0.00  0.00    +0.000 C 
BRANCH  22  23
ATOM     23  N   UNL     1     -38.850-304.583  54.809  0.00  0.00    +0.000 NA
ATOM     24  C   UNL     1     -37.755-304.243  55.753  0.00  0.00    +0.000 C 
ATOM     25  C   UNL     1     -36.368-303.977  55.142  0.00  0.00    +0.000 C 
ATOM     26  O   UNL     1     -35.934-305.177  54.448  0.00  0.00    +0.000 OA
ATOM     27  C   UNL     1     -36.946-305.527  53.515  0.00  0.00    +0.000 C 
ATOM     28  C   UNL     1     -38.409-305.748  54.021  0.00  0.00    +0.000 C 
ENDBRANCH  22  23
ENDBRANCH   7  22
TORSDOF 7
ENDMDL
MODEL 8
REMARK VINA RESULT:     0.001      3.532      6.313
REMARK INTER + INTRA:          -1.882
REMARK INTER:                   0.000
REMARK INTRA:                  -1.882
REMARK UNBOUND:                -1.883
REMARK  Name = 
REMARK  8 active torsions:
REMARK  status: ('A' for Active; 'I' for Inactive)
REMARK    1  A    between atoms: C_1  and  C_2
REMARK    2  A    between atoms: C_2  and  C_3
REMARK    3  A    between atoms: C_3  and  N_4
REMARK    4  A    between atoms: N_4  and  C_5
REMARK    5  A    between atoms: C_5  and  C_6
REMARK    6  A    between atoms: C_12  and  C_13
REMARK    7  A    between atoms: C_13  and  N_14
REMARK    8  A    between atoms: C_24  and  C_25
REMARK                            x       y       z     vdW  Elec       q    Type
REMARK                         _______ _______ _______ _____ _____    ______ ____
ROOT
ATOM      1  C   UNL     1     -45.173-302.674  59.600  0.00  0.00    +0.000 C 
ATOM      2  O   UNL     1     -44.217-303.255  60.113  0.00  0.00    +0.000 OA
ATOM      3  N   UNL     1     -45.522-302.849  58.270  0.00  0.00    +0.000 N 
ATOM      4  C   UNL     1     -45.098-304.040  57.539  0.00  0.00    +0.000 C 
ATOM      5  C   UNL     1     -43.932-303.796  56.659  0.00  0.00    +0.000 C 
ATOM      6  C   UNL     1     -44.347-302.675  55.801  0.00  0.00    +0.000 C 
ATOM      7  C   UNL     1     -44.679-301.378  56.539  0.00  0.00    +0.000 C 
ATOM      8  C   UNL     1     -45.817-301.689  57.472  0.00  0.00    +0.000 C 
ENDROOT
BRANCH   1   9
ATOM      9  C   UNL     1     -46.251-301.969  60.436  0.00  0.00    +0.000 C 
BRANCH   9  10
ATOM     10  N   UNL     1     -45.849-300.875  61.327  0.00  0.00    +0.000 N 
ATOM     11  C   UNL     1     -45.574-299.676  60.674  0.00  0.00    +0.000 A 
ATOM     12  C   UNL     1     -44.428-298.948  60.948  0.00  0.00    +0.000 A 
ATOM     13  C   UNL     1     -44.411-297.564  60.760  0.00  0.00    +0.000 A 
ATOM     14  C   UNL     1     -45.319-297.007  59.891  0.00  0.00    +0.000 A 
ATOM     15  C   UNL     1     -46.247-297.864  59.352  0.00  0.00    +0.000 A 
ATOM     16  N   UNL     1     -46.429-299.155  59.780  0.00  0.00    +0.000 NA
BRANCH  14  17
ATOM     17  C   UNL     1     -45.190-295.629  59.491  0.00  0.00    +0.000 C 
ATOM     18  N   UNL     1     -45.136-294.521  59.235  0.00  0.00    +0.000 NA
ENDBRANCH  14  17
BRANCH  10  19
ATOM     19  C   UNL     1     -46.027-301.087  62.804  0.00  0.00    +0.000 C 
BRANCH  19  21
ATOM     20  C   UNL     1     -43.689-301.763  63.319  0.00  0.00    +0.000 C 
ATOM     21  C   UNL     1     -45.146-302.186  63.386  0.00  0.00    +0.000 C 
ENDBRANCH  19  21
ENDBRANCH  10  19
ENDBRANCH   9  10
ENDBRANCH   1   9
BRANCH   7  22
ATOM     22  C   UNL     1     -43.450-300.637  57.116  0.00  0.00    +0.000 C 
BRANCH  22  23
ATOM     23  N   UNL     1     -43.533-299.180  57.429  0.00  0.00    +0.000 NA
ATOM     24  C   UNL     1     -44.096-298.377  56.313  0.00  0.00    +0.000 C 
ATOM     25  C   UNL     1     -43.203-298.187  55.074  0.00  0.00    +0.000 C 
ATOM     26  O   UNL     1     -41.990-297.501  55.484  0.00  0.00    +0.000 OA
ATOM     27  C   UNL     1     -41.404-298.250  56.539  0.00  0.00    +0.000 C 
ATOM     28  C   UNL     1     -42.252-298.563  57.816  0.00  0.00    +0.000 C 
ENDBRANCH  22  23
ENDBRANCH   7  22
TORSDOF 7
ENDMDL
MODEL 9
REMARK VINA RESULT:     0.001      7.760     10.403
REMARK INTER + INTRA:          -1.882
REMARK INTER:                   0.000
REMARK INTRA:                  -1.882
REMARK UNBOUND:                -1.883
REMARK  Name = 
REMARK  8 active torsions:
REMARK  status: ('A' for Active; 'I' for Inactive)
REMARK    1  A    between atoms: C_1  and  C_2
REMARK    2  A    between atoms: C_2  and  C_3
REMARK    3  A    between atoms: C_3  and  N_4
REMARK    4  A    between atoms: N_4  and  C_5
REMARK    5  A    between atoms: C_5  and  C_6
REMARK    6  A    between atoms: C_12  and  C_13
REMARK    7  A    between atoms: C_13  and  N_14
REMARK    8  A    between atoms: C_24  and  C_25
REMARK                            x       y       z     vdW  Elec       q    Type
REMARK                         _______ _______ _______ _____ _____    ______ ____
ROOT
ATOM      1  C   UNL     1     -38.462-300.991  64.279  0.00  0.00    +0.000 C 
ATOM      2  O   UNL     1     -37.828-300.509  65.217  0.00  0.00    +0.000 OA
ATOM      3  N   UNL     1     -39.431-300.278  63.593  0.00  0.00    +0.000 N 
ATOM      4  C   UNL     1     -39.439-298.817  63.616  0.00  0.00    +0.000 C 
ATOM      5  C   UNL     1     -40.435-298.258  64.557  0.00  0.00    +0.000 C 
ATOM      6  C   UNL     1     -41.712-298.863  64.143  0.00  0.00    +0.000 C 
ATOM      7  C   UNL     1     -41.767-300.388  64.227  0.00  0.00    +0.000 C 
ATOM      8  C   UNL     1     -40.692-300.911  63.314  0.00  0.00    +0.000 C 
ENDROOT
BRANCH   1   9
ATOM      9  C   UNL     1     -38.028-302.284  63.574  0.00  0.00    +0.000 C 
BRANCH   9  10
ATOM     10  N   UNL     1     -37.929-303.518  64.360  0.00  0.00    +0.000 N 
ATOM     11  C   UNL     1     -39.157-304.101  64.668  0.00  0.00    +0.000 A 
ATOM     12  C   UNL     1     -39.458-304.522  65.953  0.00  0.00    +0.000 A 
ATOM     13  C   UNL     1     -40.369-305.559  66.159  0.00  0.00    +0.000 A 
ATOM     14  C   UNL     1     -41.291-305.831  65.175  0.00  0.00    +0.000 A 
ATOM     15  C   UNL     1     -41.164-305.111  64.012  0.00  0.00    +0.000 A 
ATOM     16  N   UNL     1     -40.085-304.315  63.723  0.00  0.00    +0.000 NA
BRANCH  14  17
ATOM     17  C   UNL     1     -42.388-306.726  65.435  0.00  0.00    +0.000 C 
ATOM     18  N   UNL     1     -43.214-307.492  65.603  0.00  0.00    +0.000 NA
ENDBRANCH  14  17
BRANCH  10  19
ATOM     19  C   UNL     1     -36.567-304.132  64.514  0.00  0.00    +0.000 C 
BRANCH  19  21
ATOM     20  C   UNL     1     -36.039-303.193  66.757  0.00  0.00    +0.000 C 
ATOM     21  C   UNL     1     -35.586-303.279  65.311  0.00  0.00    +0.000 C 
ENDBRANCH  19  21
ENDBRANCH  10  19
ENDBRANCH   9  10
ENDBRANCH   1   9
BRANCH   7  22
ATOM     22  C   UNL     1     -41.831-300.948  65.668  0.00  0.00    +0.000 C 
BRANCH  22  23
ATOM     23  N   UNL     1     -42.356-302.324  65.913  0.00  0.00    +0.000 NA
ATOM     24  C   UNL     1     -43.656-302.578  65.242  0.00  0.00    +0.000 C 
ATOM     25  C   UNL     1     -44.891-301.870  65.826  0.00  0.00    +0.000 C 
ATOM     26  O   UNL     1     -45.063-302.305  67.200  0.00  0.00    +0.000 OA
ATOM     27  C   UNL     1     -43.845-302.058  67.888  0.00  0.00    +0.000 C 
ATOM     28  C   UNL     1     -42.517-302.673  67.336  0.00  0.00    +0.000 C 
ENDBRANCH  22  23
ENDBRANCH   7  22
TORSDOF 7
ENDMDL
MODEL 10
REMARK VINA RESULT:     0.001      4.872      5.876
REMARK INTER + INTRA:          -1.881
REMARK INTER:                   0.000
REMARK INTRA:                  -1.881
REMARK UNBOUND:                -1.883
REMARK  Name = 
REMARK  8 active torsions:
REMARK  status: ('A' for Active; 'I' for Inactive)
REMARK    1  A    between atoms: C_1  and  C_2
REMARK    2  A    between atoms: C_2  and  C_3
REMARK    3  A    between atoms: C_3  and  N_4
REMARK    4  A    between atoms: N_4  and  C_5
REMARK    5  A    between atoms: C_5  and  C_6
REMARK    6  A    between atoms: C_12  and  C_13
REMARK    7  A    between atoms: C_13  and  N_14
REMARK    8  A    between atoms: C_24  and  C_25
REMARK                            x       y       z     vdW  Elec       q    Type
REMARK                         _______ _______ _______ _____ _____    ______ ____
ROOT
ATOM      1  C   UNL     1     -48.722-299.427  62.639  0.00  0.00    +0.000 C 
ATOM      2  O   UNL     1     -48.325-299.989  63.659  0.00  0.00    +0.000 OA
ATOM      3  N   UNL     1     -49.848-298.620  62.625  0.00  0.00    +0.000 N 
ATOM      4  C   UNL     1     -50.350-298.018  63.858  0.00  0.00    +0.000 C 
ATOM      5  C   UNL     1     -51.512-298.739  64.424  0.00  0.00    +0.000 C 
ATOM      6  C   UNL     1     -52.492-298.775  63.326  0.00  0.00    +0.000 C 
ATOM      7  C   UNL     1     -52.032-299.509  62.066  0.00  0.00    +0.000 C 
ATOM      8  C   UNL     1     -50.809-298.788  61.568  0.00  0.00    +0.000 C 
ENDROOT
BRANCH   1   9
ATOM      9  C   UNL     1     -47.849-299.296  61.382  0.00  0.00    +0.000 C 
BRANCH   9  10
ATOM     10  N   UNL     1     -47.370-300.517  60.725  0.00  0.00    +0.000 N 
ATOM     11  C   UNL     1     -48.339-301.185  59.981  0.00  0.00    +0.000 A 
ATOM     12  C   UNL     1     -48.529-302.552  60.098  0.00  0.00    +0.000 A 
ATOM     13  C   UNL     1     -49.044-303.286  59.027  0.00  0.00    +0.000 A 
ATOM     14  C   UNL     1     -49.780-302.628  58.071  0.00  0.00    +0.000 A 
ATOM     15  C   UNL     1     -49.860-301.262  58.202  0.00  0.00    +0.000 A 
ATOM     16  N   UNL     1     -49.103-300.537  59.087  0.00  0.00    +0.000 NA
BRANCH  14  17
ATOM     17  C   UNL     1     -50.520-303.371  57.084  0.00  0.00    +0.000 C 
ATOM     18  N   UNL     1     -51.041-303.952  56.255  0.00  0.00    +0.000 NA
ENDBRANCH  14  17
BRANCH  10  19
ATOM     19  C   UNL     1     -45.887-300.758  60.714  0.00  0.00    +0.000 C 
BRANCH  19  21
ATOM     20  C   UNL     1     -45.794-302.306  62.659  0.00  0.00    +0.000 C 
ATOM     21  C   UNL     1     -45.283-300.993  62.094  0.00  0.00    +0.000 C 
ENDBRANCH  19  21
ENDBRANCH  10  19
ENDBRANCH   9  10
ENDBRANCH   1   9
BRANCH   7  22
ATOM     22  C   UNL     1     -51.958-301.047  62.210  0.00  0.00    +0.000 C 
BRANCH  22  23
ATOM     23  N   UNL     1     -51.995-301.916  60.997  0.00  0.00    +0.000 NA
ATOM     24  C   UNL     1     -53.105-301.573  60.071  0.00  0.00    +0.000 C 
ATOM     25  C   UNL     1     -54.529-301.938  60.527  0.00  0.00    +0.000 C 
ATOM     26  O   UNL     1     -54.597-303.377  60.713  0.00  0.00    +0.000 OA
ATOM     27  C   UNL     1     -53.563-303.746  61.613  0.00  0.00    +0.000 C 
ATOM     28  C   UNL     1     -52.084-303.359  61.280  0.00  0.00    +0.000 C 
ENDBRANCH  22  23
ENDBRANCH   7  22
TORSDOF 7
ENDMDL
