MODEL 1
REMARK VINA RESULT:    -9.629      0.000      0.000
REMARK INTER + INTRA:         -12.986
REMARK INTER:                 -12.443
REMARK INTRA:                  -0.543
REMARK UNBOUND:                -0.543
REMARK  Name = 
REMARK  6 active torsions:
REMARK  status: ('A' for Active; 'I' for Inactive)
REMARK    1  A    between atoms: C_1  and  C_2
REMARK    2  A    between atoms: C_2  and  C_3
REMARK    3  A    between atoms: C_3  and  C_4
REMARK    4  A    between atoms: C_6  and  C_7
REMARK    5  A    between atoms: N_9  and  C_10
REMARK    6  A    between atoms: C_10  and  C_11
REMARK                            x       y       z     vdW  Elec       q    Type
REMARK                         _______ _______ _______ _____ _____    ______ ____
ROOT
ATOM      1  C   UNL     1     -40.193-161.444 308.852  0.00  0.00    +0.000 C 
ATOM      2  C   UNL     1     -41.660-161.514 309.313  0.00  0.00    +0.000 C 
ATOM      3  N   UNL     1     -42.174-160.206 309.788  0.00  0.00    +0.000 NA
ATOM      4  C   UNL     1     -41.968-159.221 308.703  0.00  0.00    +0.000 C 
ATOM      5  C   UNL     1     -40.542-159.259 308.126  0.00  0.00    +0.000 C 
ATOM      6  O   UNL     1     -40.131-160.554 307.699  0.00  0.00    +0.000 OA
ENDROOT
BRANCH   1   9
ATOM      7  C   UNL     1     -38.561-164.209 307.575  0.00  0.00    +0.000 A 
ATOM      8  N   UNL     1     -38.829-162.950 307.494  0.00  0.00    +0.000 NA
ATOM      9  C   UNL     1     -39.649-162.775 308.559  0.00  0.00    +0.000 A 
ATOM     10  N   UNL     1     -39.922-163.882 309.269  0.00  0.00    +0.000 NA
ATOM     11  O   UNL     1     -39.178-164.867 308.601  0.00  0.00    +0.000 OA
BRANCH   7  12
ATOM     12  C   UNL     1     -37.768-164.975 306.603  0.00  0.00    +0.000 C 
BRANCH  12  14
ATOM     13  C   UNL     1     -38.778-167.225 305.946  0.00  0.00    +0.000 C 
ATOM     14  C   UNL     1     -38.674-165.730 305.637  0.00  0.00    +0.000 C 
ENDBRANCH  12  14
ENDBRANCH   7  12
ENDBRANCH   1   9
BRANCH   3  15
ATOM     15  C   UNL     1     -41.706-159.799 311.147  0.00  0.00    +0.000 C 
BRANCH  15  16
ATOM     16  C   UNL     1     -42.251-160.507 312.395  0.00  0.00    +0.000 A 
ATOM     17  C   UNL     1     -43.534-160.219 312.899  0.00  0.00    +0.000 A 
ATOM     18  C   UNL     1     -43.791-160.377 314.273  0.00  0.00    +0.000 A 
ATOM     19  C   UNL     1     -42.905-161.090 315.062  0.00  0.00    +0.000 A 
ATOM     20  F   UNL     1     -43.141-161.220 316.374  0.00  0.00    +0.000 F 
ATOM     21  C   UNL     1     -41.753-161.628 314.506  0.00  0.00    +0.000 A 
ATOM     22  C   UNL     1     -41.407-161.312 313.183  0.00  0.00    +0.000 A 
ENDBRANCH  15  16
ENDBRANCH   3  15
TORSDOF 5
ENDMDL
MODEL 2
REMARK VINA RESULT:    -9.419      3.445      6.593
REMARK INTER + INTRA:         -12.714
REMARK INTER:                 -12.145
REMARK INTRA:                  -0.569
REMARK UNBOUND:                -0.543
REMARK  Name = 
REMARK  6 active torsions:
REMARK  status: ('A' for Active; 'I' for Inactive)
REMARK    1  A    between atoms: C_1  and  C_2
REMARK    2  A    between atoms: C_2  and  C_3
REMARK    3  A    between atoms: C_3  and  C_4
REMARK    4  A    between atoms: C_6  and  C_7
REMARK    5  A    between atoms: N_9  and  C_10
REMARK    6  A    between atoms: C_10  and  C_11
REMARK                            x       y       z     vdW  Elec       q    Type
REMARK                         _______ _______ _______ _____ _____    ______ ____
ROOT
ATOM      1  C   UNL     1     -41.115-159.642 310.066  0.00  0.00    +0.000 C 
ATOM      2  C   UNL     1     -42.226-160.654 310.402  0.00  0.00    +0.000 C 
ATOM      3  N   UNL     1     -42.015-161.322 311.711  0.00  0.00    +0.000 NA
ATOM      4  C   UNL     1     -41.880-160.266 312.739  0.00  0.00    +0.000 C 
ATOM      5  C   UNL     1     -40.886-159.163 312.334  0.00  0.00    +0.000 C 
ATOM      6  O   UNL     1     -41.163-158.581 311.064  0.00  0.00    +0.000 OA
ENDROOT
BRANCH   1   9
ATOM      7  C   UNL     1     -41.949-157.962 307.163  0.00  0.00    +0.000 A 
ATOM      8  N   UNL     1     -42.135-158.144 308.427  0.00  0.00    +0.000 NA
ATOM      9  C   UNL     1     -41.243-159.128 308.697  0.00  0.00    +0.000 A 
ATOM     10  N   UNL     1     -40.542-159.581 307.645  0.00  0.00    +0.000 NA
ATOM     11  O   UNL     1     -41.019-158.785 306.593  0.00  0.00    +0.000 OA
BRANCH   7  12
ATOM     12  C   UNL     1     -42.726-157.054 306.310  0.00  0.00    +0.000 C 
BRANCH  12  14
ATOM     13  C   UNL     1     -42.441-154.814 307.500  0.00  0.00    +0.000 C 
ATOM     14  C   UNL     1     -43.388-155.960 307.140  0.00  0.00    +0.000 C 
ENDBRANCH  12  14
ENDBRANCH   7  12
ENDBRANCH   1   9
BRANCH   3  15
ATOM     15  C   UNL     1     -40.965-162.385 311.714  0.00  0.00    +0.000 C 
BRANCH  15  16
ATOM     16  C   UNL     1     -40.761-163.271 310.477  0.00  0.00    +0.000 A 
ATOM     17  C   UNL     1     -41.496-164.458 310.296  0.00  0.00    +0.000 A 
ATOM     18  C   UNL     1     -40.937-165.514 309.555  0.00  0.00    +0.000 A 
ATOM     19  C   UNL     1     -39.825-165.287 308.762  0.00  0.00    +0.000 A 
ATOM     20  F   UNL     1     -39.281-166.301 308.076  0.00  0.00    +0.000 F 
ATOM     21  C   UNL     1     -39.247-164.026 308.716  0.00  0.00    +0.000 A 
ATOM     22  C   UNL     1     -39.692-163.026 309.595  0.00  0.00    +0.000 A 
ENDBRANCH  15  16
ENDBRANCH   3  15
TORSDOF 5
ENDMDL
MODEL 3
REMARK VINA RESULT:    -9.283      2.829      5.983
REMARK INTER + INTRA:         -12.538
REMARK INTER:                 -12.070
REMARK INTRA:                  -0.468
REMARK UNBOUND:                -0.543
REMARK  Name = 
REMARK  6 active torsions:
REMARK  status: ('A' for Active; 'I' for Inactive)
REMARK    1  A    between atoms: C_1  and  C_2
REMARK    2  A    between atoms: C_2  and  C_3
REMARK    3  A    between atoms: C_3  and  C_4
REMARK    4  A    between atoms: C_6  and  C_7
REMARK    5  A    between atoms: N_9  and  C_10
REMARK    6  A    between atoms: C_10  and  C_11
REMARK                            x       y       z     vdW  Elec       q    Type
REMARK                         _______ _______ _______ _____ _____    ______ ____
ROOT
ATOM      1  C   UNL     1     -41.363-159.516 307.941  0.00  0.00    +0.000 C 
ATOM      2  C   UNL     1     -40.700-159.300 309.313  0.00  0.00    +0.000 C 
ATOM      3  N   UNL     1     -40.736-160.514 310.165  0.00  0.00    +0.000 NA
ATOM      4  C   UNL     1     -40.112-161.618 309.402  0.00  0.00    +0.000 C 
ATOM      5  C   UNL     1     -40.660-161.737 307.968  0.00  0.00    +0.000 C 
ATOM      6  O   UNL     1     -40.589-160.523 307.226  0.00  0.00    +0.000 OA
ENDROOT
BRANCH   1   9
ATOM      7  C   UNL     1     -42.085-156.348 306.766  0.00  0.00    +0.000 A 
ATOM      8  N   UNL     1     -42.240-157.252 307.673  0.00  0.00    +0.000 NA
ATOM      9  C   UNL     1     -41.479-158.262 307.188  0.00  0.00    +0.000 A 
ATOM     10  N   UNL     1     -40.891-158.028 306.003  0.00  0.00    +0.000 NA
ATOM     11  O   UNL     1     -41.301-156.719 305.710  0.00  0.00    +0.000 OA
BRANCH   7  12
ATOM     12  C   UNL     1     -42.768-155.048 306.733  0.00  0.00    +0.000 C 
BRANCH  12  14
ATOM     13  C   UNL     1     -44.435-154.460 304.892  0.00  0.00    +0.000 C 
ATOM     14  C   UNL     1     -42.965-154.572 305.298  0.00  0.00    +0.000 C 
ENDBRANCH  12  14
ENDBRANCH   7  12
ENDBRANCH   1   9
BRANCH   3  15
ATOM     15  C   UNL     1     -42.062-160.809 310.788  0.00  0.00    +0.000 C 
BRANCH  15  16
ATOM     16  C   UNL     1     -42.260-160.631 312.299  0.00  0.00    +0.000 A 
ATOM     17  C   UNL     1     -41.336-161.150 313.226  0.00  0.00    +0.000 A 
ATOM     18  C   UNL     1     -41.772-161.514 314.513  0.00  0.00    +0.000 A 
ATOM     19  C   UNL     1     -43.010-161.090 314.966  0.00  0.00    +0.000 A 
ATOM     20  F   UNL     1     -43.432-161.458 316.183  0.00  0.00    +0.000 F 
ATOM     21  C   UNL     1     -43.829-160.327 314.146  0.00  0.00    +0.000 A 
ATOM     22  C   UNL     1     -43.472-160.124 312.804  0.00  0.00    +0.000 A 
ENDBRANCH  15  16
ENDBRANCH   3  15
TORSDOF 5
ENDMDL
MODEL 4
REMARK VINA RESULT:    -9.081      3.659      5.555
REMARK INTER + INTRA:         -12.278
REMARK INTER:                 -11.774
REMARK INTRA:                  -0.504
REMARK UNBOUND:                -0.543
REMARK  Name = 
REMARK  6 active torsions:
REMARK  status: ('A' for Active; 'I' for Inactive)
REMARK    1  A    between atoms: C_1  and  C_2
REMARK    2  A    between atoms: C_2  and  C_3
REMARK    3  A    between atoms: C_3  and  C_4
REMARK    4  A    between atoms: C_6  and  C_7
REMARK    5  A    between atoms: N_9  and  C_10
REMARK    6  A    between atoms: C_10  and  C_11
REMARK                            x       y       z     vdW  Elec       q    Type
REMARK                         _______ _______ _______ _____ _____    ______ ____
ROOT
ATOM      1  C   UNL     1     -41.221-160.990 309.240  0.00  0.00    +0.000 C 
ATOM      2  C   UNL     1     -40.774-159.542 309.509  0.00  0.00    +0.000 C 
ATOM      3  N   UNL     1     -41.860-158.704 310.078  0.00  0.00    +0.000 NA
ATOM      4  C   UNL     1     -42.358-159.379 311.297  0.00  0.00    +0.000 C 
ATOM      5  C   UNL     1     -42.654-160.873 311.072  0.00  0.00    +0.000 C 
ATOM      6  O   UNL     1     -41.559-161.597 310.521  0.00  0.00    +0.000 OA
ENDROOT
BRANCH   1   9
ATOM      7  C   UNL     1     -39.075-163.375 307.956  0.00  0.00    +0.000 A 
ATOM      8  N   UNL     1     -40.025-163.069 308.774  0.00  0.00    +0.000 NA
ATOM      9  C   UNL     1     -40.197-161.750 308.514  0.00  0.00    +0.000 A 
ATOM     10  N   UNL     1     -39.368-161.227 307.596  0.00  0.00    +0.000 NA
ATOM     11  O   UNL     1     -38.599-162.335 307.209  0.00  0.00    +0.000 OA
BRANCH   7  12
ATOM     12  C   UNL     1     -38.415-164.684 307.869  0.00  0.00    +0.000 C 
BRANCH  12  14
ATOM     13  C   UNL     1     -38.205-165.686 305.531  0.00  0.00    +0.000 C 
ATOM     14  C   UNL     1     -37.578-164.789 306.599  0.00  0.00    +0.000 C 
ENDBRANCH  12  14
ENDBRANCH   7  12
ENDBRANCH   1   9
BRANCH   3  15
ATOM     15  C   UNL     1     -42.896-158.263 309.097  0.00  0.00    +0.000 C 
BRANCH  15  16
ATOM     16  C   UNL     1     -42.608-157.095 308.144  0.00  0.00    +0.000 A 
ATOM     17  C   UNL     1     -43.050-155.789 308.430  0.00  0.00    +0.000 A 
ATOM     18  C   UNL     1     -43.320-154.901 307.373  0.00  0.00    +0.000 A 
ATOM     19  C   UNL     1     -42.872-155.192 306.096  0.00  0.00    +0.000 A 
ATOM     20  F   UNL     1     -43.152-154.355 305.088  0.00  0.00    +0.000 F 
ATOM     21  C   UNL     1     -42.178-156.369 305.852  0.00  0.00    +0.000 A 
ATOM     22  C   UNL     1     -42.073-157.335 306.864  0.00  0.00    +0.000 A 
ENDBRANCH  15  16
ENDBRANCH   3  15
TORSDOF 5
ENDMDL
