MODEL 1
REMARK VINA RESULT:    -9.365      0.000      0.000
REMARK INTER + INTRA:         -11.764
REMARK INTER:                 -11.555
REMARK INTRA:                  -0.208
REMARK UNBOUND:                -0.208
REMARK  Name = 
REMARK  6 active torsions:
REMARK  status: ('A' for Active; 'I' for Inactive)
REMARK    1  A    between atoms: C_1  and  C_2
REMARK    2  A    between atoms: C_2  and  C_3
REMARK    3  A    between atoms: C_5  and  C_6
REMARK    4  A    between atoms: N_8  and  C_9
REMARK    5  A    between atoms: C_9  and  C_10
REMARK    6  A    between atoms: C_19  and  C_20
REMARK                            x       y       z     vdW  Elec       q    Type
REMARK                         _______ _______ _______ _____ _____    ______ ____
ROOT
ATOM      1  C   UNL     1     -43.297-156.199 308.337  0.00  0.00    +0.000 C 
ATOM      2  O   UNL     1     -43.248-155.028 308.729  0.00  0.00    +0.000 OA
ATOM      3  N   UNL     1     -42.652-157.163 309.082  0.00  0.00    +0.000 N 
ATOM      4  H   UNL     1     -42.188-156.794 309.904  0.00  0.00    +0.000 HD
ENDROOT
BRANCH   1   7
ATOM      5  C   UNL     1     -45.642-157.718 305.860  0.00  0.00    +0.000 A 
ATOM      6  C   UNL     1     -45.022-157.500 307.076  0.00  0.00    +0.000 A 
ATOM      7  C   UNL     1     -44.047-156.531 307.078  0.00  0.00    +0.000 A 
ATOM      8  N   UNL     1     -43.723-155.840 305.973  0.00  0.00    +0.000 NA
ATOM      9  C   UNL     1     -44.372-156.104 304.843  0.00  0.00    +0.000 A 
ATOM     10  C   UNL     1     -44.012-155.301 303.635  0.00  0.00    +0.000 C 
ATOM     11  N   UNL     1     -45.327-157.026 304.741  0.00  0.00    +0.000 NA
BRANCH   5  13
ATOM     12  C   UNL     1     -47.022-159.060 304.261  0.00  0.00    +0.000 C 
ATOM     13  C   UNL     1     -46.775-158.692 305.718  0.00  0.00    +0.000 C 
ENDBRANCH   5  13
ENDBRANCH   1   7
BRANCH   3  14
ATOM     14  C   UNL     1     -42.490-158.585 308.842  0.00  0.00    +0.000 C 
BRANCH  14  15
ATOM     15  C   UNL     1     -41.868-159.325 309.996  0.00  0.00    +0.000 A 
ATOM     16  C   UNL     1     -41.450-158.573 311.107  0.00  0.00    +0.000 A 
ATOM     17  C   UNL     1     -40.863-159.201 312.202  0.00  0.00    +0.000 A 
ATOM     18  C   UNL     1     -40.707-160.582 312.199  0.00  0.00    +0.000 A 
ATOM     19  F   UNL     1     -40.107-161.161 313.248  0.00  0.00    +0.000 F 
ATOM     20  C   UNL     1     -41.162-161.347 311.128  0.00  0.00    +0.000 A 
ATOM     21 CL   UNL     1     -40.971-163.057 311.121  0.00  0.00    +0.000 Cl
ATOM     22  C   UNL     1     -41.761-160.724 310.035  0.00  0.00    +0.000 A 
ENDBRANCH  14  15
ENDBRANCH   3  14
TORSDOF 4
ENDMDL
MODEL 2
REMARK VINA RESULT:    -9.284      4.182      7.534
REMARK INTER + INTRA:         -11.664
REMARK INTER:                 -11.732
REMARK INTRA:                   0.068
REMARK UNBOUND:                -0.208
REMARK  Name = 
REMARK  6 active torsions:
REMARK  status: ('A' for Active; 'I' for Inactive)
REMARK    1  A    between atoms: C_1  and  C_2
REMARK    2  A    between atoms: C_2  and  C_3
REMARK    3  A    between atoms: C_5  and  C_6
REMARK    4  A    between atoms: N_8  and  C_9
REMARK    5  A    between atoms: C_9  and  C_10
REMARK    6  A    between atoms: C_19  and  C_20
REMARK                            x       y       z     vdW  Elec       q    Type
REMARK                         _______ _______ _______ _____ _____    ______ ____
ROOT
ATOM      1  C   UNL     1     -40.941-159.780 308.372  0.00  0.00    +0.000 C 
ATOM      2  O   UNL     1     -40.064-160.117 307.569  0.00  0.00    +0.000 OA
ATOM      3  N   UNL     1     -41.638-158.616 308.126  0.00  0.00    +0.000 N 
ATOM      4  H   UNL     1     -41.344-158.142 307.280  0.00  0.00    +0.000 HD
ENDROOT
BRANCH   1   7
ATOM      5  C   UNL     1     -41.781-160.958 311.814  0.00  0.00    +0.000 A 
ATOM      6  C   UNL     1     -41.550-160.069 310.782  0.00  0.00    +0.000 A 
ATOM      7  C   UNL     1     -41.217-160.637 309.575  0.00  0.00    +0.000 A 
ATOM      8  N   UNL     1     -41.129-161.967 309.412  0.00  0.00    +0.000 NA
ATOM      9  C   UNL     1     -41.375-162.756 310.453  0.00  0.00    +0.000 A 
ATOM     10  C   UNL     1     -41.297-164.232 310.237  0.00  0.00    +0.000 C 
ATOM     11  N   UNL     1     -41.699-162.299 311.661  0.00  0.00    +0.000 NA
BRANCH   5  13
ATOM     12  C   UNL     1     -43.648-159.950 313.142  0.00  0.00    +0.000 C 
ATOM     13  C   UNL     1     -42.224-160.490 313.170  0.00  0.00    +0.000 C 
ENDBRANCH   5  13
ENDBRANCH   1   7
BRANCH   3  14
ATOM     14  C   UNL     1     -42.663-157.951 308.908  0.00  0.00    +0.000 C 
BRANCH  14  15
ATOM     15  C   UNL     1     -43.595-157.103 308.084  0.00  0.00    +0.000 A 
ATOM     16  C   UNL     1     -43.531-155.709 308.249  0.00  0.00    +0.000 A 
ATOM     17  C   UNL     1     -44.372-154.874 307.520  0.00  0.00    +0.000 A 
ATOM     18  C   UNL     1     -45.268-155.426 306.611  0.00  0.00    +0.000 A 
ATOM     19  F   UNL     1     -46.092-154.606 305.945  0.00  0.00    +0.000 F 
ATOM     20  C   UNL     1     -45.309-156.802 306.398  0.00  0.00    +0.000 A 
ATOM     21 CL   UNL     1     -46.415-157.488 305.273  0.00  0.00    +0.000 Cl
ATOM     22  C   UNL     1     -44.460-157.640 307.118  0.00  0.00    +0.000 A 
ENDBRANCH  14  15
ENDBRANCH   3  14
TORSDOF 4
ENDMDL
MODEL 3
REMARK VINA RESULT:    -9.222      4.162      7.523
REMARK INTER + INTRA:         -11.586
REMARK INTER:                 -11.512
REMARK INTRA:                  -0.075
REMARK UNBOUND:                -0.208
REMARK  Name = 
REMARK  6 active torsions:
REMARK  status: ('A' for Active; 'I' for Inactive)
REMARK    1  A    between atoms: C_1  and  C_2
REMARK    2  A    between atoms: C_2  and  C_3
REMARK    3  A    between atoms: C_5  and  C_6
REMARK    4  A    between atoms: N_8  and  C_9
REMARK    5  A    between atoms: C_9  and  C_10
REMARK    6  A    between atoms: C_19  and  C_20
REMARK                            x       y       z     vdW  Elec       q    Type
REMARK                         _______ _______ _______ _____ _____    ______ ____
ROOT
ATOM      1  C   UNL     1     -40.875-160.019 308.135  0.00  0.00    +0.000 C 
ATOM      2  O   UNL     1     -40.106-160.414 307.253  0.00  0.00    +0.000 OA
ATOM      3  N   UNL     1     -41.551-158.834 307.930  0.00  0.00    +0.000 N 
ATOM      4  H   UNL     1     -41.334-158.397 307.042  0.00  0.00    +0.000 HD
ENDROOT
BRANCH   1   7
ATOM      5  C   UNL     1     -41.408-162.824 310.542  0.00  0.00    +0.000 A 
ATOM      6  C   UNL     1     -41.263-162.186 309.325  0.00  0.00    +0.000 A 
ATOM      7  C   UNL     1     -41.050-160.829 309.389  0.00  0.00    +0.000 A 
ATOM      8  N   UNL     1     -40.983-160.171 310.557  0.00  0.00    +0.000 NA
ATOM      9  C   UNL     1     -41.127-160.858 311.686  0.00  0.00    +0.000 A 
ATOM     10  C   UNL     1     -41.021-160.105 312.973  0.00  0.00    +0.000 C 
ATOM     11  N   UNL     1     -41.340-162.172 311.725  0.00  0.00    +0.000 NA
BRANCH   5  13
ATOM     12  C   UNL     1     -40.864-165.030 309.494  0.00  0.00    +0.000 C 
ATOM     13  C   UNL     1     -41.574-164.313 310.635  0.00  0.00    +0.000 C 
ENDBRANCH   5  13
ENDBRANCH   1   7
BRANCH   3  14
ATOM     14  C   UNL     1     -42.457-158.105 308.797  0.00  0.00    +0.000 C 
BRANCH  14  15
ATOM     15  C   UNL     1     -43.417-157.215 308.054  0.00  0.00    +0.000 A 
ATOM     16  C   UNL     1     -43.350-155.833 308.297  0.00  0.00    +0.000 A 
ATOM     17  C   UNL     1     -44.217-154.960 307.645  0.00  0.00    +0.000 A 
ATOM     18  C   UNL     1     -45.141-155.463 306.736  0.00  0.00    +0.000 A 
ATOM     19  F   UNL     1     -45.989-154.609 306.146  0.00  0.00    +0.000 F 
ATOM     20  C   UNL     1     -45.186-156.824 306.446  0.00  0.00    +0.000 A 
ATOM     21 CL   UNL     1     -46.327-157.449 305.320  0.00  0.00    +0.000 Cl
ATOM     22  C   UNL     1     -44.312-157.699 307.088  0.00  0.00    +0.000 A 
ENDBRANCH  14  15
ENDBRANCH   3  14
TORSDOF 4
ENDMDL
MODEL 4
REMARK VINA RESULT:    -9.177      4.605      6.223
REMARK INTER + INTRA:         -11.531
REMARK INTER:                 -10.822
REMARK INTRA:                  -0.709
REMARK UNBOUND:                -0.208
REMARK  Name = 
REMARK  6 active torsions:
REMARK  status: ('A' for Active; 'I' for Inactive)
REMARK    1  A    between atoms: C_1  and  C_2
REMARK    2  A    between atoms: C_2  and  C_3
REMARK    3  A    between atoms: C_5  and  C_6
REMARK    4  A    between atoms: N_8  and  C_9
REMARK    5  A    between atoms: C_9  and  C_10
REMARK    6  A    between atoms: C_19  and  C_20
REMARK                            x       y       z     vdW  Elec       q    Type
REMARK                         _______ _______ _______ _____ _____    ______ ____
ROOT
ATOM      1  C   UNL     1     -41.151-159.714 308.759  0.00  0.00    +0.000 C 
ATOM      2  O   UNL     1     -41.665-159.240 307.741  0.00  0.00    +0.000 OA
ATOM      3  N   UNL     1     -41.114-158.935 309.896  0.00  0.00    +0.000 N 
ATOM      4  H   UNL     1     -41.527-158.018 309.769  0.00  0.00    +0.000 HD
ENDROOT
BRANCH   1   7
ATOM      5  C   UNL     1     -40.607-163.369 309.298  0.00  0.00    +0.000 A 
ATOM      6  C   UNL     1     -41.216-162.133 309.399  0.00  0.00    +0.000 A 
ATOM      7  C   UNL     1     -40.590-161.108 308.729  0.00  0.00    +0.000 A 
ATOM      8  N   UNL     1     -39.466-161.300 308.020  0.00  0.00    +0.000 NA
ATOM      9  C   UNL     1     -38.946-162.523 307.965  0.00  0.00    +0.000 A 
ATOM     10  C   UNL     1     -37.711-162.713 307.147  0.00  0.00    +0.000 C 
ATOM     11  N   UNL     1     -39.477-163.575 308.584  0.00  0.00    +0.000 NA
BRANCH   5  13
ATOM     12  C   UNL     1     -40.814-165.859 309.163  0.00  0.00    +0.000 C 
ATOM     13  C   UNL     1     -41.213-164.596 309.915  0.00  0.00    +0.000 C 
ENDBRANCH   5  13
ENDBRANCH   1   7
BRANCH   3  14
ATOM     14  C   UNL     1     -40.531-159.198 311.199  0.00  0.00    +0.000 C 
BRANCH  14  15
ATOM     15  C   UNL     1     -41.526-159.687 312.216  0.00  0.00    +0.000 A 
ATOM     16  C   UNL     1     -42.835-159.181 312.149  0.00  0.00    +0.000 A 
ATOM     17  C   UNL     1     -43.797-159.591 313.067  0.00  0.00    +0.000 A 
ATOM     18  C   UNL     1     -43.461-160.522 314.044  0.00  0.00    +0.000 A 
ATOM     19  F   UNL     1     -44.393-160.876 314.939  0.00  0.00    +0.000 F 
ATOM     20  C   UNL     1     -42.183-161.072 314.093  0.00  0.00    +0.000 A 
ATOM     21 CL   UNL     1     -41.764-162.225 315.299  0.00  0.00    +0.000 Cl
ATOM     22  C   UNL     1     -41.220-160.673 313.168  0.00  0.00    +0.000 A 
ENDBRANCH  14  15
ENDBRANCH   3  14
TORSDOF 4
ENDMDL
MODEL 5
REMARK VINA RESULT:    -9.081      4.626      6.529
REMARK INTER + INTRA:         -11.413
REMARK INTER:                 -10.847
REMARK INTRA:                  -0.566
REMARK UNBOUND:                -0.208
REMARK  Name = 
REMARK  6 active torsions:
REMARK  status: ('A' for Active; 'I' for Inactive)
REMARK    1  A    between atoms: C_1  and  C_2
REMARK    2  A    between atoms: C_2  and  C_3
REMARK    3  A    between atoms: C_5  and  C_6
REMARK    4  A    between atoms: N_8  and  C_9
REMARK    5  A    between atoms: C_9  and  C_10
REMARK    6  A    between atoms: C_19  and  C_20
REMARK                            x       y       z     vdW  Elec       q    Type
REMARK                         _______ _______ _______ _____ _____    ______ ____
ROOT
ATOM      1  C   UNL     1     -41.222-159.704 308.894  0.00  0.00    +0.000 C 
ATOM      2  O   UNL     1     -41.745-159.227 307.881  0.00  0.00    +0.000 OA
ATOM      3  N   UNL     1     -41.165-158.923 310.029  0.00  0.00    +0.000 N 
ATOM      4  H   UNL     1     -41.573-158.003 309.905  0.00  0.00    +0.000 HD
ENDROOT
BRANCH   1   7
ATOM      5  C   UNL     1     -39.212-162.744 308.079  0.00  0.00    +0.000 A 
ATOM      6  C   UNL     1     -39.631-161.428 308.023  0.00  0.00    +0.000 A 
ATOM      7  C   UNL     1     -40.673-161.102 308.859  0.00  0.00    +0.000 A 
ATOM      8  N   UNL     1     -41.239-162.003 309.679  0.00  0.00    +0.000 NA
ATOM      9  C   UNL     1     -40.773-163.248 309.679  0.00  0.00    +0.000 A 
ATOM     10  C   UNL     1     -41.404-164.222 310.620  0.00  0.00    +0.000 C 
ATOM     11  N   UNL     1     -39.773-163.658 308.903  0.00  0.00    +0.000 NA
BRANCH   5  13
ATOM     12  C   UNL     1     -37.963-164.751 307.260  0.00  0.00    +0.000 C 
ATOM     13  C   UNL     1     -38.039-163.230 307.279  0.00  0.00    +0.000 C 
ENDBRANCH   5  13
ENDBRANCH   1   7
BRANCH   3  14
ATOM     14  C   UNL     1     -40.569-159.188 311.325  0.00  0.00    +0.000 C 
BRANCH  14  15
ATOM     15  C   UNL     1     -41.549-159.699 312.346  0.00  0.00    +0.000 A 
ATOM     16  C   UNL     1     -42.863-159.205 312.298  0.00  0.00    +0.000 A 
ATOM     17  C   UNL     1     -43.812-159.636 313.220  0.00  0.00    +0.000 A 
ATOM     18  C   UNL     1     -43.457-160.574 314.183  0.00  0.00    +0.000 A 
ATOM     19  F   UNL     1     -44.377-160.948 315.083  0.00  0.00    +0.000 F 
ATOM     20  C   UNL     1     -42.173-161.111 314.214  0.00  0.00    +0.000 A 
ATOM     21 CL   UNL     1     -41.731-162.273 315.403  0.00  0.00    +0.000 Cl
ATOM     22  C   UNL     1     -41.223-160.692 313.284  0.00  0.00    +0.000 A 
ENDBRANCH  14  15
ENDBRANCH   3  14
TORSDOF 4
ENDMDL
MODEL 6
REMARK VINA RESULT:    -9.068      5.049      8.054
REMARK INTER + INTRA:         -11.397
REMARK INTER:                 -11.232
REMARK INTRA:                  -0.165
REMARK UNBOUND:                -0.208
REMARK  Name = 
REMARK  6 active torsions:
REMARK  status: ('A' for Active; 'I' for Inactive)
REMARK    1  A    between atoms: C_1  and  C_2
REMARK    2  A    between atoms: C_2  and  C_3
REMARK    3  A    between atoms: C_5  and  C_6
REMARK    4  A    between atoms: N_8  and  C_9
REMARK    5  A    between atoms: C_9  and  C_10
REMARK    6  A    between atoms: C_19  and  C_20
REMARK                            x       y       z     vdW  Elec       q    Type
REMARK                         _______ _______ _______ _____ _____    ______ ____
ROOT
ATOM      1  C   UNL     1     -40.654-160.712 309.754  0.00  0.00    +0.000 C 
ATOM      2  O   UNL     1     -40.776-160.589 310.977  0.00  0.00    +0.000 OA
ATOM      3  N   UNL     1     -41.004-159.645 308.953  0.00  0.00    +0.000 N 
ATOM      4  H   UNL     1     -41.339-158.843 309.474  0.00  0.00    +0.000 HD
ENDROOT
BRANCH   1   7
ATOM      5  C   UNL     1     -38.700-163.251 307.836  0.00  0.00    +0.000 A 
ATOM      6  C   UNL     1     -39.090-162.005 308.291  0.00  0.00    +0.000 A 
ATOM      7  C   UNL     1     -40.135-162.002 309.184  0.00  0.00    +0.000 A 
ATOM      8  N   UNL     1     -40.732-163.134 309.590  0.00  0.00    +0.000 NA
ATOM      9  C   UNL     1     -40.293-164.294 309.111  0.00  0.00    +0.000 A 
ATOM     10  C   UNL     1     -40.957-165.540 309.600  0.00  0.00    +0.000 C 
ATOM     11  N   UNL     1     -39.291-164.398 308.240  0.00  0.00    +0.000 NA
BRANCH   5  13
ATOM     12  C   UNL     1     -37.158-164.886 306.736  0.00  0.00    +0.000 C 
ATOM     13  C   UNL     1     -37.528-163.419 306.914  0.00  0.00    +0.000 C 
ENDBRANCH   5  13
ENDBRANCH   1   7
BRANCH   3  14
ATOM     14  C   UNL     1     -41.024-159.521 307.507  0.00  0.00    +0.000 C 
BRANCH  14  15
ATOM     15  C   UNL     1     -41.547-158.196 307.023  0.00  0.00    +0.000 A 
ATOM     16  C   UNL     1     -41.230-157.807 305.710  0.00  0.00    +0.000 A 
ATOM     17  C   UNL     1     -41.680-156.589 305.208  0.00  0.00    +0.000 A 
ATOM     18  C   UNL     1     -42.462-155.764 306.009  0.00  0.00    +0.000 A 
ATOM     19  F   UNL     1     -42.854-154.580 305.517  0.00  0.00    +0.000 F 
ATOM     20  C   UNL     1     -42.827-156.156 307.294  0.00  0.00    +0.000 A 
ATOM     21 CL   UNL     1     -43.795-155.138 308.286  0.00  0.00    +0.000 Cl
ATOM     22  C   UNL     1     -42.389-157.381 307.795  0.00  0.00    +0.000 A 
ENDBRANCH  14  15
ENDBRANCH   3  14
TORSDOF 4
ENDMDL
MODEL 7
REMARK VINA RESULT:    -8.977      3.154      4.553
REMARK INTER + INTRA:         -11.285
REMARK INTER:                 -10.696
REMARK INTRA:                  -0.589
REMARK UNBOUND:                -0.208
REMARK  Name = 
REMARK  6 active torsions:
REMARK  status: ('A' for Active; 'I' for Inactive)
REMARK    1  A    between atoms: C_1  and  C_2
REMARK    2  A    between atoms: C_2  and  C_3
REMARK    3  A    between atoms: C_5  and  C_6
REMARK    4  A    between atoms: N_8  and  C_9
REMARK    5  A    between atoms: C_9  and  C_10
REMARK    6  A    between atoms: C_19  and  C_20
REMARK                            x       y       z     vdW  Elec       q    Type
REMARK                         _______ _______ _______ _____ _____    ______ ____
ROOT
ATOM      1  C   UNL     1     -41.777-159.191 310.551  0.00  0.00    +0.000 C 
ATOM      2  O   UNL     1     -41.318-158.539 311.495  0.00  0.00    +0.000 OA
ATOM      3  N   UNL     1     -41.987-160.541 310.731  0.00  0.00    +0.000 N 
ATOM      4  H   UNL     1     -41.731-160.869 311.656  0.00  0.00    +0.000 HD
ENDROOT
BRANCH   1   7
ATOM      5  C   UNL     1     -41.699-158.027 307.003  0.00  0.00    +0.000 A 
ATOM      6  C   UNL     1     -41.315-158.717 308.138  0.00  0.00    +0.000 A 
ATOM      7  C   UNL     1     -42.089-158.500 309.253  0.00  0.00    +0.000 A 
ATOM      8  N   UNL     1     -43.150-157.677 309.237  0.00  0.00    +0.000 NA
ATOM      9  C   UNL     1     -43.459-157.056 308.103  0.00  0.00    +0.000 A 
ATOM     10  C   UNL     1     -44.660-156.168 308.107  0.00  0.00    +0.000 C 
ATOM     11  N   UNL     1     -42.767-157.199 306.975  0.00  0.00    +0.000 NA
BRANCH   5  13
ATOM     12  C   UNL     1     -41.357-157.124 304.695  0.00  0.00    +0.000 C 
ATOM     13  C   UNL     1     -40.995-158.218 305.691  0.00  0.00    +0.000 C 
ENDBRANCH   5  13
ENDBRANCH   1   7
BRANCH   3  14
ATOM     14  C   UNL     1     -42.452-161.553 309.801  0.00  0.00    +0.000 C 
BRANCH  14  15
ATOM     15  C   UNL     1     -41.391-162.547 309.411  0.00  0.00    +0.000 A 
ATOM     16  C   UNL     1     -41.547-163.875 309.842  0.00  0.00    +0.000 A 
ATOM     17  C   UNL     1     -40.595-164.837 309.518  0.00  0.00    +0.000 A 
ATOM     18  C   UNL     1     -39.493-164.481 308.749  0.00  0.00    +0.000 A 
ATOM     19  F   UNL     1     -38.571-165.416 308.478  0.00  0.00    +0.000 F 
ATOM     20  C   UNL     1     -39.349-163.181 308.271  0.00  0.00    +0.000 A 
ATOM     21 CL   UNL     1     -37.988-162.737 307.317  0.00  0.00    +0.000 Cl
ATOM     22  C   UNL     1     -40.307-162.218 308.583  0.00  0.00    +0.000 A 
ENDBRANCH  14  15
ENDBRANCH   3  14
TORSDOF 4
ENDMDL
MODEL 8
REMARK VINA RESULT:    -8.946      3.120      4.334
REMARK INTER + INTRA:         -11.246
REMARK INTER:                 -10.738
REMARK INTRA:                  -0.508
REMARK UNBOUND:                -0.208
REMARK  Name = 
REMARK  6 active torsions:
REMARK  status: ('A' for Active; 'I' for Inactive)
REMARK    1  A    between atoms: C_1  and  C_2
REMARK    2  A    between atoms: C_2  and  C_3
REMARK    3  A    between atoms: C_5  and  C_6
REMARK    4  A    between atoms: N_8  and  C_9
REMARK    5  A    between atoms: C_9  and  C_10
REMARK    6  A    between atoms: C_19  and  C_20
REMARK                            x       y       z     vdW  Elec       q    Type
REMARK                         _______ _______ _______ _____ _____    ______ ____
ROOT
ATOM      1  C   UNL     1     -41.649-159.047 310.475  0.00  0.00    +0.000 C 
ATOM      2  O   UNL     1     -41.122-158.389 311.377  0.00  0.00    +0.000 OA
ATOM      3  N   UNL     1     -41.781-160.408 310.651  0.00  0.00    +0.000 N 
ATOM      4  H   UNL     1     -41.415-160.737 311.537  0.00  0.00    +0.000 HD
ENDROOT
BRANCH   1   7
ATOM      5  C   UNL     1     -43.559-156.935 308.058  0.00  0.00    +0.000 A 
ATOM      6  C   UNL     1     -43.215-157.516 309.264  0.00  0.00    +0.000 A 
ATOM      7  C   UNL     1     -42.126-158.353 309.230  0.00  0.00    +0.000 A 
ATOM      8  N   UNL     1     -41.440-158.586 308.099  0.00  0.00    +0.000 NA
ATOM      9  C   UNL     1     -41.830-157.983 306.980  0.00  0.00    +0.000 A 
ATOM     10  C   UNL     1     -41.032-158.239 305.743  0.00  0.00    +0.000 C 
ATOM     11  N   UNL     1     -42.874-157.160 306.914  0.00  0.00    +0.000 NA
BRANCH   5  13
ATOM     12  C   UNL     1     -44.757-155.325 306.564  0.00  0.00    +0.000 C 
ATOM     13  C   UNL     1     -44.680-155.943 307.954  0.00  0.00    +0.000 C 
ENDBRANCH   5  13
ENDBRANCH   1   7
BRANCH   3  14
ATOM     14  C   UNL     1     -42.297-161.427 309.756  0.00  0.00    +0.000 C 
BRANCH  14  15
ATOM     15  C   UNL     1     -41.271-162.452 309.353  0.00  0.00    +0.000 A 
ATOM     16  C   UNL     1     -41.465-163.776 309.780  0.00  0.00    +0.000 A 
ATOM     17  C   UNL     1     -40.547-164.767 309.445  0.00  0.00    +0.000 A 
ATOM     18  C   UNL     1     -39.441-164.442 308.667  0.00  0.00    +0.000 A 
ATOM     19  F   UNL     1     -38.552-165.404 308.386  0.00  0.00    +0.000 F 
ATOM     20  C   UNL     1     -39.261-163.145 308.192  0.00  0.00    +0.000 A 
ATOM     21 CL   UNL     1     -37.894-162.741 307.228  0.00  0.00    +0.000 Cl
ATOM     22  C   UNL     1     -40.184-162.154 308.516  0.00  0.00    +0.000 A 
ENDBRANCH  14  15
ENDBRANCH   3  14
TORSDOF 4
ENDMDL
MODEL 9
REMARK VINA RESULT:    -8.929      5.425      7.835
REMARK INTER + INTRA:         -11.225
REMARK INTER:                 -11.306
REMARK INTRA:                   0.081
REMARK UNBOUND:                -0.208
REMARK  Name = 
REMARK  6 active torsions:
REMARK  status: ('A' for Active; 'I' for Inactive)
REMARK    1  A    between atoms: C_1  and  C_2
REMARK    2  A    between atoms: C_2  and  C_3
REMARK    3  A    between atoms: C_5  and  C_6
REMARK    4  A    between atoms: N_8  and  C_9
REMARK    5  A    between atoms: C_9  and  C_10
REMARK    6  A    between atoms: C_19  and  C_20
REMARK                            x       y       z     vdW  Elec       q    Type
REMARK                         _______ _______ _______ _____ _____    ______ ____
ROOT
ATOM      1  C   UNL     1     -40.893-163.881 310.334  0.00  0.00    +0.000 C 
ATOM      2  O   UNL     1     -41.711-164.711 310.744  0.00  0.00    +0.000 OA
ATOM      3  N   UNL     1     -40.820-162.664 310.978  0.00  0.00    +0.000 N 
ATOM      4  H   UNL     1     -41.473-162.576 311.748  0.00  0.00    +0.000 HD
ENDROOT
BRANCH   1   7
ATOM      5  C   UNL     1     -39.166-165.673 307.550  0.00  0.00    +0.000 A 
ATOM      6  C   UNL     1     -40.015-165.482 308.623  0.00  0.00    +0.000 A 
ATOM      7  C   UNL     1     -40.013-164.218 309.163  0.00  0.00    +0.000 A 
ATOM      8  N   UNL     1     -39.240-163.235 308.676  0.00  0.00    +0.000 NA
ATOM      9  C   UNL     1     -38.455-163.496 307.635  0.00  0.00    +0.000 A 
ATOM     10  C   UNL     1     -37.626-162.376 307.096  0.00  0.00    +0.000 C 
ATOM     11  N   UNL     1     -38.385-164.689 307.048  0.00  0.00    +0.000 NA
BRANCH   5  13
ATOM     12  C   UNL     1     -38.642-166.793 305.375  0.00  0.00    +0.000 C 
ATOM     13  C   UNL     1     -39.113-166.978 306.811  0.00  0.00    +0.000 C 
ENDBRANCH   5  13
ENDBRANCH   1   7
BRANCH   3  14
ATOM     14  C   UNL     1     -40.013-161.493 310.689  0.00  0.00    +0.000 C 
BRANCH  14  15
ATOM     15  C   UNL     1     -40.794-160.353 310.094  0.00  0.00    +0.000 A 
ATOM     16  C   UNL     1     -41.630-159.616 310.950  0.00  0.00    +0.000 A 
ATOM     17  C   UNL     1     -42.383-158.554 310.456  0.00  0.00    +0.000 A 
ATOM     18  C   UNL     1     -42.290-158.213 309.112  0.00  0.00    +0.000 A 
ATOM     19  F   UNL     1     -43.050-157.210 308.651  0.00  0.00    +0.000 F 
ATOM     20  C   UNL     1     -41.428-158.901 308.261  0.00  0.00    +0.000 A 
ATOM     21 CL   UNL     1     -41.310-158.482 306.597  0.00  0.00    +0.000 Cl
ATOM     22  C   UNL     1     -40.664-159.957 308.754  0.00  0.00    +0.000 A 
ENDBRANCH  14  15
ENDBRANCH   3  14
TORSDOF 4
ENDMDL
MODEL 10
REMARK VINA RESULT:    -8.922      3.066      3.868
REMARK INTER + INTRA:         -11.217
REMARK INTER:                 -10.834
REMARK INTRA:                  -0.383
REMARK UNBOUND:                -0.208
REMARK  Name = 
REMARK  6 active torsions:
REMARK  status: ('A' for Active; 'I' for Inactive)
REMARK    1  A    between atoms: C_1  and  C_2
REMARK    2  A    between atoms: C_2  and  C_3
REMARK    3  A    between atoms: C_5  and  C_6
REMARK    4  A    between atoms: N_8  and  C_9
REMARK    5  A    between atoms: C_9  and  C_10
REMARK    6  A    between atoms: C_19  and  C_20
REMARK                            x       y       z     vdW  Elec       q    Type
REMARK                         _______ _______ _______ _____ _____    ______ ____
ROOT
ATOM      1  C   UNL     1     -40.852-160.169 308.636  0.00  0.00    +0.000 C 
ATOM      2  O   UNL     1     -40.578-161.181 307.982  0.00  0.00    +0.000 OA
ATOM      3  N   UNL     1     -40.551-160.159 309.981  0.00  0.00    +0.000 N 
ATOM      4  H   UNL     1     -40.121-161.019 310.304  0.00  0.00    +0.000 HD
ENDROOT
BRANCH   1   7
ATOM      5  C   UNL     1     -43.187-157.412 307.693  0.00  0.00    +0.000 A 
ATOM      6  C   UNL     1     -42.694-158.493 308.399  0.00  0.00    +0.000 A 
ATOM      7  C   UNL     1     -41.495-158.994 307.954  0.00  0.00    +0.000 A 
ATOM      8  N   UNL     1     -40.845-158.465 306.905  0.00  0.00    +0.000 NA
ATOM      9  C   UNL     1     -41.381-157.420 306.283  0.00  0.00    +0.000 A 
ATOM     10  C   UNL     1     -40.623-156.833 305.136  0.00  0.00    +0.000 C 
ATOM     11  N   UNL     1     -42.539-156.868 306.638  0.00  0.00    +0.000 NA
BRANCH   5  13
ATOM     12  C   UNL     1     -44.310-155.198 308.009  0.00  0.00    +0.000 C 
ATOM     13  C   UNL     1     -44.449-156.712 308.106  0.00  0.00    +0.000 C 
ENDBRANCH   5  13
ENDBRANCH   1   7
BRANCH   3  14
ATOM     14  C   UNL     1     -40.805-159.153 310.995  0.00  0.00    +0.000 C 
BRANCH  14  15
ATOM     15  C   UNL     1     -41.676-159.639 312.123  0.00  0.00    +0.000 A 
ATOM     16  C   UNL     1     -42.970-159.102 312.229  0.00  0.00    +0.000 A 
ATOM     17  C   UNL     1     -43.819-159.508 313.254  0.00  0.00    +0.000 A 
ATOM     18  C   UNL     1     -43.386-160.463 314.167  0.00  0.00    +0.000 A 
ATOM     19  F   UNL     1     -44.207-160.813 315.166  0.00  0.00    +0.000 F 
ATOM     20  C   UNL     1     -42.125-161.043 314.046  0.00  0.00    +0.000 A 
ATOM     21 CL   UNL     1     -41.586-162.227 315.172  0.00  0.00    +0.000 Cl
ATOM     22  C   UNL     1     -41.277-160.648 313.013  0.00  0.00    +0.000 A 
ENDBRANCH  14  15
ENDBRANCH   3  14
TORSDOF 4
ENDMDL
