MODEL 1
REMARK VINA RESULT:     0.000      0.000      0.000
REMARK INTER + INTRA:          -1.705
REMARK INTER:                   0.000
REMARK INTRA:                  -1.705
REMARK UNBOUND:                -1.705
REMARK  Name = 
REMARK  9 active torsions:
REMARK  status: ('A' for Active; 'I' for Inactive)
REMARK    1  A    between atoms: C_1  and  C_2
REMARK    2  A    between atoms: C_2  and  C_3
REMARK    3  A    between atoms: C_3  and  C_4
REMARK    4  A    between atoms: N_6  and  C_7
REMARK    5  A    between atoms: C_7  and  C_8
REMARK    6  A    between atoms: C_7  and  C_9
REMARK    7  A    between atoms: C_14  and  O_15
REMARK    8  A    between atoms: O_15  and  C_16
REMARK    9  A    between atoms: C_16  and  C_17
REMARK                            x       y       z     vdW  Elec       q    Type
REMARK                         _______ _______ _______ _____ _____    ______ ____
ROOT
ATOM      1  C   UNL     1     -42.534-300.367  65.945  0.00  0.00    +0.000 C 
ATOM      2  O   UNL     1     -42.937-300.987  64.971  0.00  0.00    +0.000 OA
ATOM      3  N   UNL     1     -43.361-299.889  66.942  0.00  0.00    +0.000 N 
ATOM      4  C   UNL     1     -44.684-300.444  67.099  0.00  0.00    +0.000 C 
ATOM      5  C   UNL     1     -45.735-299.511  66.539  0.00  0.00    +0.000 C 
ATOM      6  C   UNL     1     -45.563-298.094  67.089  0.00  0.00    +0.000 C 
ATOM      7  C   UNL     1     -44.106-297.661  67.106  0.00  0.00    +0.000 C 
ATOM      8  C   UNL     1     -43.115-298.642  67.622  0.00  0.00    +0.000 C 
ENDROOT
BRANCH   1   9
ATOM      9  C   UNL     1     -41.055-300.383  66.337  0.00  0.00    +0.000 C 
ATOM     10  C   UNL     1     -40.946-301.408  67.512  0.00  0.00    +0.000 C 
BRANCH   9  13
ATOM     11  C   UNL     1     -40.078-298.097  65.780  0.00  0.00    +0.000 C 
ATOM     12  O   UNL     1     -39.472-297.126  66.265  0.00  0.00    +0.000 OA
ATOM     13  N   UNL     1     -40.279-299.170  66.596  0.00  0.00    +0.000 N 
ATOM     14  H   UNL     1     -39.803-299.048  67.478  0.00  0.00    +0.000 HD
BRANCH  11  15
ATOM     15  C   UNL     1     -40.568-298.072  64.331  0.00  0.00    +0.000 C 
BRANCH  15  17
ATOM     16  C   UNL     1     -42.813-297.982  63.111  0.00  0.00    +0.000 C 
ATOM     17  C   UNL     1     -41.863-297.282  64.037  0.00  0.00    +0.000 C 
ENDBRANCH  15  17
ENDBRANCH  11  15
ENDBRANCH   9  13
ENDBRANCH   1   9
BRANCH   6  18
ATOM     18  O   UNL     1     -46.396-297.130  66.413  0.00  0.00    +0.000 OA
BRANCH  18  19
ATOM     19  C   UNL     1     -46.676-297.345  65.013  0.00  0.00    +0.000 C 
BRANCH  19  20
ATOM     20  C   UNL     1     -46.100-296.282  64.092  0.00  0.00    +0.000 A 
ATOM     21  C   UNL     1     -45.268-295.263  64.606  0.00  0.00    +0.000 A 
ATOM     22  C   UNL     1     -44.425-294.545  63.753  0.00  0.00    +0.000 A 
ATOM     23  C   UNL     1     -44.532-294.725  62.380  0.00  0.00    +0.000 A 
ATOM     24  F   UNL     1     -43.745-294.015  61.560  0.00  0.00    +0.000 F 
ATOM     25  C   UNL     1     -45.423-295.650  61.846  0.00  0.00    +0.000 A 
ATOM     26  C   UNL     1     -46.192-296.445  62.698  0.00  0.00    +0.000 A 
ENDBRANCH  19  20
ENDBRANCH  18  19
ENDBRANCH   6  18
TORSDOF 7
ENDMDL
MODEL 2
REMARK VINA RESULT:     0.000      4.442      7.203
REMARK INTER + INTRA:          -1.705
REMARK INTER:                   0.000
REMARK INTRA:                  -1.705
REMARK UNBOUND:                -1.705
REMARK  Name = 
REMARK  9 active torsions:
REMARK  status: ('A' for Active; 'I' for Inactive)
REMARK    1  A    between atoms: C_1  and  C_2
REMARK    2  A    between atoms: C_2  and  C_3
REMARK    3  A    between atoms: C_3  and  C_4
REMARK    4  A    between atoms: N_6  and  C_7
REMARK    5  A    between atoms: C_7  and  C_8
REMARK    6  A    between atoms: C_7  and  C_9
REMARK    7  A    between atoms: C_14  and  O_15
REMARK    8  A    between atoms: O_15  and  C_16
REMARK    9  A    between atoms: C_16  and  C_17
REMARK                            x       y       z     vdW  Elec       q    Type
REMARK                         _______ _______ _______ _____ _____    ______ ____
ROOT
ATOM      1  C   UNL     1     -40.139-296.674  62.333  0.00  0.00    +0.000 C 
ATOM      2  O   UNL     1     -39.165-296.707  61.595  0.00  0.00    +0.000 OA
ATOM      3  N   UNL     1     -40.200-297.332  63.546  0.00  0.00    +0.000 N 
ATOM      4  C   UNL     1     -38.979-297.752  64.192  0.00  0.00    +0.000 C 
ATOM      5  C   UNL     1     -38.757-299.239  64.020  0.00  0.00    +0.000 C 
ATOM      6  C   UNL     1     -40.002-300.032  64.421  0.00  0.00    +0.000 C 
ATOM      7  C   UNL     1     -41.278-299.397  63.893  0.00  0.00    +0.000 C 
ATOM      8  C   UNL     1     -41.415-297.924  64.048  0.00  0.00    +0.000 C 
ENDROOT
BRANCH   1   9
ATOM      9  C   UNL     1     -41.229-295.615  62.162  0.00  0.00    +0.000 C 
ATOM     10  C   UNL     1     -40.937-294.535  63.254  0.00  0.00    +0.000 C 
BRANCH   9  13
ATOM     11  C   UNL     1     -43.290-296.767  61.204  0.00  0.00    +0.000 C 
ATOM     12  O   UNL     1     -44.500-296.970  61.399  0.00  0.00    +0.000 OA
ATOM     13  N   UNL     1     -42.654-295.933  62.076  0.00  0.00    +0.000 N 
ATOM     14  H   UNL     1     -43.311-295.513  62.718  0.00  0.00    +0.000 HD
BRANCH  11  15
ATOM     15  C   UNL     1     -42.562-297.431  60.034  0.00  0.00    +0.000 C 
BRANCH  15  17
ATOM     16  C   UNL     1     -40.774-299.232  59.717  0.00  0.00    +0.000 C 
ATOM     17  C   UNL     1     -42.157-298.913  60.203  0.00  0.00    +0.000 C 
ENDBRANCH  15  17
ENDBRANCH  11  15
ENDBRANCH   9  13
ENDBRANCH   1   9
BRANCH   6  18
ATOM     18  O   UNL     1     -39.914-301.425  64.062  0.00  0.00    +0.000 OA
BRANCH  18  19
ATOM     19  C   UNL     1     -39.178-301.768  62.868  0.00  0.00    +0.000 C 
BRANCH  19  20
ATOM     20  C   UNL     1     -40.030-302.377  61.766  0.00  0.00    +0.000 A 
ATOM     21  C   UNL     1     -41.432-302.459  61.906  0.00  0.00    +0.000 A 
ATOM     22  C   UNL     1     -42.245-302.628  60.781  0.00  0.00    +0.000 A 
ATOM     23  C   UNL     1     -41.657-302.880  59.548  0.00  0.00    +0.000 A 
ATOM     24  F   UNL     1     -42.435-303.071  58.475  0.00  0.00    +0.000 F 
ATOM     25  C   UNL     1     -40.273-302.909  59.407  0.00  0.00    +0.000 A 
ATOM     26  C   UNL     1     -39.457-302.636  60.507  0.00  0.00    +0.000 A 
ENDBRANCH  19  20
ENDBRANCH  18  19
ENDBRANCH   6  18
TORSDOF 7
ENDMDL
MODEL 3
REMARK VINA RESULT:     0.001      5.763      8.532
REMARK INTER + INTRA:          -1.704
REMARK INTER:                   0.000
REMARK INTRA:                  -1.704
REMARK UNBOUND:                -1.705
REMARK  Name = 
REMARK  9 active torsions:
REMARK  status: ('A' for Active; 'I' for Inactive)
REMARK    1  A    between atoms: C_1  and  C_2
REMARK    2  A    between atoms: C_2  and  C_3
REMARK    3  A    between atoms: C_3  and  C_4
REMARK    4  A    between atoms: N_6  and  C_7
REMARK    5  A    between atoms: C_7  and  C_8
REMARK    6  A    between atoms: C_7  and  C_9
REMARK    7  A    between atoms: C_14  and  O_15
REMARK    8  A    between atoms: O_15  and  C_16
REMARK    9  A    between atoms: C_16  and  C_17
REMARK                            x       y       z     vdW  Elec       q    Type
REMARK                         _______ _______ _______ _____ _____    ______ ____
ROOT
ATOM      1  C   UNL     1     -44.766-295.244  58.060  0.00  0.00    +0.000 C 
ATOM      2  O   UNL     1     -45.293-296.327  58.269  0.00  0.00    +0.000 OA
ATOM      3  N   UNL     1     -43.754-294.724  58.842  0.00  0.00    +0.000 N 
ATOM      4  C   UNL     1     -42.987-295.601  59.695  0.00  0.00    +0.000 C 
ATOM      5  C   UNL     1     -43.422-295.473  61.138  0.00  0.00    +0.000 C 
ATOM      6  C   UNL     1     -43.444-294.008  61.578  0.00  0.00    +0.000 C 
ATOM      7  C   UNL     1     -44.063-293.104  60.524  0.00  0.00    +0.000 C 
ATOM      8  C   UNL     1     -43.632-293.313  59.116  0.00  0.00    +0.000 C 
ENDROOT
BRANCH   1   9
ATOM      9  C   UNL     1     -44.918-294.535  56.713  0.00  0.00    +0.000 C 
ATOM     10  C   UNL     1     -43.585-294.810  55.944  0.00  0.00    +0.000 C 
BRANCH   9  13
ATOM     11  C   UNL     1     -46.483-292.554  57.051  0.00  0.00    +0.000 C 
ATOM     12  O   UNL     1     -46.578-291.323  56.913  0.00  0.00    +0.000 OA
ATOM     13  N   UNL     1     -45.348-293.144  56.580  0.00  0.00    +0.000 N 
ATOM     14  H   UNL     1     -44.775-292.478  56.083  0.00  0.00    +0.000 HD
BRANCH  11  15
ATOM     15  C   UNL     1     -47.600-293.356  57.723  0.00  0.00    +0.000 C 
BRANCH  15  17
ATOM     16  C   UNL     1     -47.942-294.648  59.903  0.00  0.00    +0.000 C 
ATOM     17  C   UNL     1     -47.668-293.318  59.266  0.00  0.00    +0.000 C 
ENDBRANCH  15  17
ENDBRANCH  11  15
ENDBRANCH   9  13
ENDBRANCH   1   9
BRANCH   6  18
ATOM     18  O   UNL     1     -44.065-293.823  62.866  0.00  0.00    +0.000 OA
BRANCH  18  19
ATOM     19  C   UNL     1     -45.138-294.717  63.232  0.00  0.00    +0.000 C 
BRANCH  19  20
ATOM     20  C   UNL     1     -46.488-294.036  63.393  0.00  0.00    +0.000 A 
ATOM     21  C   UNL     1     -46.643-292.669  63.076  0.00  0.00    +0.000 A 
ATOM     22  C   UNL     1     -47.915-292.143  62.830  0.00  0.00    +0.000 A 
ATOM     23  C   UNL     1     -49.034-292.931  63.061  0.00  0.00    +0.000 A 
ATOM     24  F   UNL     1     -50.254-292.418  62.854  0.00  0.00    +0.000 F 
ATOM     25  C   UNL     1     -48.907-294.253  63.477  0.00  0.00    +0.000 A 
ATOM     26  C   UNL     1     -47.636-294.815  63.622  0.00  0.00    +0.000 A 
ENDBRANCH  19  20
ENDBRANCH  18  19
ENDBRANCH   6  18
TORSDOF 7
ENDMDL
MODEL 4
REMARK VINA RESULT:     0.001     12.001     13.256
REMARK INTER + INTRA:          -1.703
REMARK INTER:                   0.000
REMARK INTRA:                  -1.703
REMARK UNBOUND:                -1.705
REMARK  Name = 
REMARK  9 active torsions:
REMARK  status: ('A' for Active; 'I' for Inactive)
REMARK    1  A    between atoms: C_1  and  C_2
REMARK    2  A    between atoms: C_2  and  C_3
REMARK    3  A    between atoms: C_3  and  C_4
REMARK    4  A    between atoms: N_6  and  C_7
REMARK    5  A    between atoms: C_7  and  C_8
REMARK    6  A    between atoms: C_7  and  C_9
REMARK    7  A    between atoms: C_14  and  O_15
REMARK    8  A    between atoms: O_15  and  C_16
REMARK    9  A    between atoms: C_16  and  C_17
REMARK                            x       y       z     vdW  Elec       q    Type
REMARK                         _______ _______ _______ _____ _____    ______ ____
ROOT
ATOM      1  C   UNL     1     -47.603-308.037  59.076  0.00  0.00    +0.000 C 
ATOM      2  O   UNL     1     -46.595-308.248  58.416  0.00  0.00    +0.000 OA
ATOM      3  N   UNL     1     -48.829-308.609  58.801  0.00  0.00    +0.000 N 
ATOM      4  C   UNL     1     -48.896-309.794  57.980  0.00  0.00    +0.000 C 
ATOM      5  C   UNL     1     -49.355-309.459  56.578  0.00  0.00    +0.000 C 
ATOM      6  C   UNL     1     -50.635-308.621  56.603  0.00  0.00    +0.000 C 
ATOM      7  C   UNL     1     -50.582-307.528  57.658  0.00  0.00    +0.000 C 
ATOM      8  C   UNL     1     -50.074-307.910  59.002  0.00  0.00    +0.000 C 
ENDROOT
BRANCH   1   9
ATOM      9  C   UNL     1     -47.520-307.417  60.472  0.00  0.00    +0.000 C 
ATOM     10  C   UNL     1     -47.674-308.612  61.469  0.00  0.00    +0.000 C 
BRANCH   9  13
ATOM     11  C   UNL     1     -48.373-305.022  60.311  0.00  0.00    +0.000 C 
ATOM     12  O   UNL     1     -49.207-304.226  60.775  0.00  0.00    +0.000 OA
ATOM     13  N   UNL     1     -48.309-306.256  60.885  0.00  0.00    +0.000 N 
ATOM     14  H   UNL     1     -48.908-306.309  61.696  0.00  0.00    +0.000 HD
BRANCH  11  15
ATOM     15  C   UNL     1     -47.465-304.615  59.148  0.00  0.00    +0.000 C 
BRANCH  15  17
ATOM     16  C   UNL     1     -47.196-305.230  56.680  0.00  0.00    +0.000 C 
ATOM     17  C   UNL     1     -48.083-304.630  57.731  0.00  0.00    +0.000 C 
ENDBRANCH  15  17
ENDBRANCH  11  15
ENDBRANCH   9  13
ENDBRANCH   1   9
BRANCH   6  18
ATOM     18  O   UNL     1     -50.979-308.093  55.306  0.00  0.00    +0.000 OA
BRANCH  18  19
ATOM     19  C   UNL     1     -49.901-307.757  54.407  0.00  0.00    +0.000 C 
BRANCH  19  20
ATOM     20  C   UNL     1     -49.799-306.276  54.082  0.00  0.00    +0.000 A 
ATOM     21  C   UNL     1     -50.633-305.341  54.732  0.00  0.00    +0.000 A 
ATOM     22  C   UNL     1     -50.289-303.986  54.754  0.00  0.00    +0.000 A 
ATOM     23  C   UNL     1     -49.214-303.544  53.996  0.00  0.00    +0.000 A 
ATOM     24  F   UNL     1     -48.902-302.241  53.993  0.00  0.00    +0.000 F 
ATOM     25  C   UNL     1     -48.440-304.436  53.261  0.00  0.00    +0.000 A 
ATOM     26  C   UNL     1     -48.715-305.805  53.319  0.00  0.00    +0.000 A 
ENDBRANCH  19  20
ENDBRANCH  18  19
ENDBRANCH   6  18
TORSDOF 7
ENDMDL
MODEL 5
REMARK VINA RESULT:     0.002      3.875      7.175
REMARK INTER + INTRA:          -1.702
REMARK INTER:                   0.000
REMARK INTRA:                  -1.702
REMARK UNBOUND:                -1.705
REMARK  Name = 
REMARK  9 active torsions:
REMARK  status: ('A' for Active; 'I' for Inactive)
REMARK    1  A    between atoms: C_1  and  C_2
REMARK    2  A    between atoms: C_2  and  C_3
REMARK    3  A    between atoms: C_3  and  C_4
REMARK    4  A    between atoms: N_6  and  C_7
REMARK    5  A    between atoms: C_7  and  C_8
REMARK    6  A    between atoms: C_7  and  C_9
REMARK    7  A    between atoms: C_14  and  O_15
REMARK    8  A    between atoms: O_15  and  C_16
REMARK    9  A    between atoms: C_16  and  C_17
REMARK                            x       y       z     vdW  Elec       q    Type
REMARK                         _______ _______ _______ _____ _____    ______ ____
ROOT
ATOM      1  C   UNL     1     -43.172-298.901  63.701  0.00  0.00    +0.000 C 
ATOM      2  O   UNL     1     -43.561-299.609  64.618  0.00  0.00    +0.000 OA
ATOM      3  N   UNL     1     -42.778-299.392  62.472  0.00  0.00    +0.000 N 
ATOM      4  C   UNL     1     -43.189-300.715  62.066  0.00  0.00    +0.000 C 
ATOM      5  C   UNL     1     -42.055-301.705  62.210  0.00  0.00    +0.000 C 
ATOM      6  C   UNL     1     -40.785-301.191  61.529  0.00  0.00    +0.000 C 
ATOM      7  C   UNL     1     -40.539-299.718  61.818  0.00  0.00    +0.000 C 
ATOM      8  C   UNL     1     -41.706-298.804  61.708  0.00  0.00    +0.000 C 
ENDROOT
BRANCH   1   9
ATOM      9  C   UNL     1     -43.431-297.393  63.698  0.00  0.00    +0.000 C 
ATOM     10  C   UNL     1     -44.645-297.180  62.736  0.00  0.00    +0.000 C 
BRANCH   9  13
ATOM     11  C   UNL     1     -41.218-296.224  64.169  0.00  0.00    +0.000 C 
ATOM     12  O   UNL     1     -40.423-295.377  63.727  0.00  0.00    +0.000 OA
ATOM     13  N   UNL     1     -42.382-296.397  63.482  0.00  0.00    +0.000 N 
ATOM     14  H   UNL     1     -42.470-295.716  62.742  0.00  0.00    +0.000 HD
BRANCH  11  15
ATOM     15  C   UNL     1     -40.886-297.027  65.429  0.00  0.00    +0.000 C 
BRANCH  15  17
ATOM     16  C   UNL     1     -40.316-299.451  66.011  0.00  0.00    +0.000 C 
ATOM     17  C   UNL     1     -39.905-298.210  65.274  0.00  0.00    +0.000 C 
ENDBRANCH  15  17
ENDBRANCH  11  15
ENDBRANCH   9  13
ENDBRANCH   1   9
BRANCH   6  18
ATOM     18  O   UNL     1     -39.627-301.993  61.834  0.00  0.00    +0.000 OA
BRANCH  18  19
ATOM     19  C   UNL     1     -39.560-302.614  63.136  0.00  0.00    +0.000 C 
BRANCH  19  20
ATOM     20  C   UNL     1     -38.428-302.104  64.012  0.00  0.00    +0.000 A 
ATOM     21  C   UNL     1     -37.622-301.026  63.586  0.00  0.00    +0.000 A 
ATOM     22  C   UNL     1     -36.871-300.298  64.514  0.00  0.00    +0.000 A 
ATOM     23  C   UNL     1     -36.793-300.744  65.827  0.00  0.00    +0.000 A 
ATOM     24  F   UNL     1     -36.050-300.064  66.710  0.00  0.00    +0.000 F 
ATOM     25  C   UNL     1     -37.497-301.869  66.244  0.00  0.00    +0.000 A 
ATOM     26  C   UNL     1     -38.332-302.538  65.346  0.00  0.00    +0.000 A 
ENDBRANCH  19  20
ENDBRANCH  18  19
ENDBRANCH   6  18
TORSDOF 7
ENDMDL
MODEL 6
REMARK VINA RESULT:     0.002      4.293      6.498
REMARK INTER + INTRA:          -1.702
REMARK INTER:                   0.000
REMARK INTRA:                  -1.702
REMARK UNBOUND:                -1.705
REMARK  Name = 
REMARK  9 active torsions:
REMARK  status: ('A' for Active; 'I' for Inactive)
REMARK    1  A    between atoms: C_1  and  C_2
REMARK    2  A    between atoms: C_2  and  C_3
REMARK    3  A    between atoms: C_3  and  C_4
REMARK    4  A    between atoms: N_6  and  C_7
REMARK    5  A    between atoms: C_7  and  C_8
REMARK    6  A    between atoms: C_7  and  C_9
REMARK    7  A    between atoms: C_14  and  O_15
REMARK    8  A    between atoms: O_15  and  C_16
REMARK    9  A    between atoms: C_16  and  C_17
REMARK                            x       y       z     vdW  Elec       q    Type
REMARK                         _______ _______ _______ _____ _____    ______ ____
ROOT
ATOM      1  C   UNL     1     -44.561-299.718  68.311  0.00  0.00    +0.000 C 
ATOM      2  O   UNL     1     -44.373-300.589  69.149  0.00  0.00    +0.000 OA
ATOM      3  N   UNL     1     -45.682-298.913  68.286  0.00  0.00    +0.000 N 
ATOM      4  C   UNL     1     -46.490-298.777  69.474  0.00  0.00    +0.000 C 
ATOM      5  C   UNL     1     -47.754-299.601  69.369  0.00  0.00    +0.000 C 
ATOM      6  C   UNL     1     -48.489-299.319  68.057  0.00  0.00    +0.000 C 
ATOM      7  C   UNL     1     -47.536-299.248  66.874  0.00  0.00    +0.000 C 
ATOM      8  C   UNL     1     -46.287-298.463  67.057  0.00  0.00    +0.000 C 
ENDROOT
BRANCH   1   9
ATOM      9  C   UNL     1     -43.416-299.194  67.442  0.00  0.00    +0.000 C 
ATOM     10  C   UNL     1     -42.990-297.835  68.088  0.00  0.00    +0.000 C 
BRANCH   9  13
ATOM     11  C   UNL     1     -43.757-300.093  65.084  0.00  0.00    +0.000 C 
ATOM     12  O   UNL     1     -43.879-299.754  63.894  0.00  0.00    +0.000 OA
ATOM     13  N   UNL     1     -43.488-299.106  65.984  0.00  0.00    +0.000 N 
ATOM     14  H   UNL     1     -43.327-298.225  65.517  0.00  0.00    +0.000 HD
BRANCH  11  15
ATOM     15  C   UNL     1     -43.905-301.559  65.500  0.00  0.00    +0.000 C 
BRANCH  15  17
ATOM     16  C   UNL     1     -45.569-302.974  66.829  0.00  0.00    +0.000 C 
ATOM     17  C   UNL     1     -45.341-302.118  65.618  0.00  0.00    +0.000 C 
ENDBRANCH  15  17
ENDBRANCH  11  15
ENDBRANCH   9  13
ENDBRANCH   1   9
BRANCH   6  18
ATOM     18  O   UNL     1     -49.570-300.241  67.815  0.00  0.00    +0.000 OA
BRANCH  18  19
ATOM     19  C   UNL     1     -49.422-301.595  68.296  0.00  0.00    +0.000 C 
BRANCH  19  20
ATOM     20  C   UNL     1     -49.363-302.643  67.198  0.00  0.00    +0.000 A 
ATOM     21  C   UNL     1     -49.331-302.257  65.840  0.00  0.00    +0.000 A 
ATOM     22  C   UNL     1     -48.877-303.150  64.864  0.00  0.00    +0.000 A 
ATOM     23  C   UNL     1     -48.615-304.467  65.215  0.00  0.00    +0.000 A 
ATOM     24  F   UNL     1     -48.208-305.331  64.276  0.00  0.00    +0.000 F 
ATOM     25  C   UNL     1     -48.743-304.897  66.533  0.00  0.00    +0.000 A 
ATOM     26  C   UNL     1     -49.094-303.983  67.530  0.00  0.00    +0.000 A 
ENDBRANCH  19  20
ENDBRANCH  18  19
ENDBRANCH   6  18
TORSDOF 7
ENDMDL
MODEL 7
REMARK VINA RESULT:     0.002      8.478     10.908
REMARK INTER + INTRA:          -1.701
REMARK INTER:                   0.000
REMARK INTRA:                  -1.701
REMARK UNBOUND:                -1.705
REMARK  Name = 
REMARK  9 active torsions:
REMARK  status: ('A' for Active; 'I' for Inactive)
REMARK    1  A    between atoms: C_1  and  C_2
REMARK    2  A    between atoms: C_2  and  C_3
REMARK    3  A    between atoms: C_3  and  C_4
REMARK    4  A    between atoms: N_6  and  C_7
REMARK    5  A    between atoms: C_7  and  C_8
REMARK    6  A    between atoms: C_7  and  C_9
REMARK    7  A    between atoms: C_14  and  O_15
REMARK    8  A    between atoms: O_15  and  C_16
REMARK    9  A    between atoms: C_16  and  C_17
REMARK                            x       y       z     vdW  Elec       q    Type
REMARK                         _______ _______ _______ _____ _____    ______ ____
ROOT
ATOM      1  C   UNL     1     -48.142-300.006  59.258  0.00  0.00    +0.000 C 
ATOM      2  O   UNL     1     -48.060-298.788  59.189  0.00  0.00    +0.000 OA
ATOM      3  N   UNL     1     -47.044-300.843  59.288  0.00  0.00    +0.000 N 
ATOM      4  C   UNL     1     -45.752-300.314  59.653  0.00  0.00    +0.000 C 
ATOM      5  C   UNL     1     -44.880-300.119  58.432  0.00  0.00    +0.000 C 
ATOM      6  C   UNL     1     -44.837-301.387  57.577  0.00  0.00    +0.000 C 
ATOM      7  C   UNL     1     -46.211-302.021  57.427  0.00  0.00    +0.000 C 
ATOM      8  C   UNL     1     -47.039-302.139  58.656  0.00  0.00    +0.000 C 
ENDROOT
BRANCH   1   9
ATOM      9  C   UNL     1     -49.441-300.691  59.685  0.00  0.00    +0.000 C 
ATOM     10  C   UNL     1     -49.234-301.082  61.184  0.00  0.00    +0.000 C 
BRANCH   9  13
ATOM     11  C   UNL     1     -50.464-301.771  57.617  0.00  0.00    +0.000 C 
ATOM     12  O   UNL     1     -50.874-302.849  57.153  0.00  0.00    +0.000 OA
ATOM     13  N   UNL     1     -50.071-301.769  58.922  0.00  0.00    +0.000 N 
ATOM     14  H   UNL     1     -50.269-302.656  59.361  0.00  0.00    +0.000 HD
BRANCH  11  15
ATOM     15  C   UNL     1     -50.411-300.513  56.747  0.00  0.00    +0.000 C 
BRANCH  15  17
ATOM     16  C   UNL     1     -48.614-299.024  55.703  0.00  0.00    +0.000 C 
ATOM     17  C   UNL     1     -49.232-300.389  55.755  0.00  0.00    +0.000 C 
ENDBRANCH  15  17
ENDBRANCH  11  15
ENDBRANCH   9  13
ENDBRANCH   1   9
BRANCH   6  18
ATOM     18  O   UNL     1     -44.207-301.175  56.298  0.00  0.00    +0.000 OA
BRANCH  18  19
ATOM     19  C   UNL     1     -44.357-299.880  55.679  0.00  0.00    +0.000 C 
BRANCH  19  20
ATOM     20  C   UNL     1     -45.139-299.900  54.375  0.00  0.00    +0.000 A 
ATOM     21  C   UNL     1     -45.753-301.090  53.926  0.00  0.00    +0.000 A 
ATOM     22  C   UNL     1     -46.782-301.039  52.982  0.00  0.00    +0.000 A 
ATOM     23  C   UNL     1     -47.084-299.831  52.368  0.00  0.00    +0.000 A 
ATOM     24  F   UNL     1     -48.050-299.787  51.441  0.00  0.00    +0.000 F 
ATOM     25  C   UNL     1     -46.417-298.662  52.720  0.00  0.00    +0.000 A 
ATOM     26  C   UNL     1     -45.461-298.688  53.738  0.00  0.00    +0.000 A 
ENDBRANCH  19  20
ENDBRANCH  18  19
ENDBRANCH   6  18
TORSDOF 7
ENDMDL
MODEL 8
REMARK VINA RESULT:     0.003      5.208      7.805
REMARK INTER + INTRA:          -1.700
REMARK INTER:                   0.000
REMARK INTRA:                  -1.700
REMARK UNBOUND:                -1.705
REMARK  Name = 
REMARK  9 active torsions:
REMARK  status: ('A' for Active; 'I' for Inactive)
REMARK    1  A    between atoms: C_1  and  C_2
REMARK    2  A    between atoms: C_2  and  C_3
REMARK    3  A    between atoms: C_3  and  C_4
REMARK    4  A    between atoms: N_6  and  C_7
REMARK    5  A    between atoms: C_7  and  C_8
REMARK    6  A    between atoms: C_7  and  C_9
REMARK    7  A    between atoms: C_14  and  O_15
REMARK    8  A    between atoms: O_15  and  C_16
REMARK    9  A    between atoms: C_16  and  C_17
REMARK                            x       y       z     vdW  Elec       q    Type
REMARK                         _______ _______ _______ _____ _____    ______ ____
ROOT
ATOM      1  C   UNL     1     -42.306-295.372  60.975  0.00  0.00    +0.000 C 
ATOM      2  O   UNL     1     -43.490-295.588  61.187  0.00  0.00    +0.000 OA
ATOM      3  N   UNL     1     -41.753-295.325  59.710  0.00  0.00    +0.000 N 
ATOM      4  C   UNL     1     -42.607-295.122  58.564  0.00  0.00    +0.000 C 
ATOM      5  C   UNL     1     -42.835-296.419  57.819  0.00  0.00    +0.000 C 
ATOM      6  C   UNL     1     -41.510-297.120  57.515  0.00  0.00    +0.000 C 
ATOM      7  C   UNL     1     -40.564-297.093  58.706  0.00  0.00    +0.000 C 
ATOM      8  C   UNL     1     -40.422-295.801  59.427  0.00  0.00    +0.000 C 
ENDROOT
BRANCH   1   9
ATOM      9  C   UNL     1     -41.403-294.773  62.055  0.00  0.00    +0.000 C 
ATOM     10  C   UNL     1     -41.270-293.257  61.693  0.00  0.00    +0.000 C 
BRANCH   9  13
ATOM     11  C   UNL     1     -39.858-296.619  62.887  0.00  0.00    +0.000 C 
ATOM     12  O   UNL     1     -38.664-296.922  63.051  0.00  0.00    +0.000 OA
ATOM     13  N   UNL     1     -40.120-295.356  62.446  0.00  0.00    +0.000 N 
ATOM     14  H   UNL     1     -39.276-294.804  62.408  0.00  0.00    +0.000 HD
BRANCH  11  15
ATOM     15  C   UNL     1     -40.970-297.630  63.173  0.00  0.00    +0.000 C 
BRANCH  15  17
ATOM     16  C   UNL     1     -42.683-298.970  61.828  0.00  0.00    +0.000 C 
ATOM     17  C   UNL     1     -41.231-298.715  62.105  0.00  0.00    +0.000 C 
ENDBRANCH  15  17
ENDBRANCH  11  15
ENDBRANCH   9  13
ENDBRANCH   1   9
BRANCH   6  18
ATOM     18  O   UNL     1     -41.691-298.458  57.011  0.00  0.00    +0.000 OA
BRANCH  18  19
ATOM     19  C   UNL     1     -42.826-299.211  57.489  0.00  0.00    +0.000 C 
BRANCH  19  20
ATOM     20  C   UNL     1     -42.459-300.441  58.302  0.00  0.00    +0.000 A 
ATOM     21  C   UNL     1     -41.113-300.704  58.637  0.00  0.00    +0.000 A 
ATOM     22  C   UNL     1     -40.805-301.569  59.691  0.00  0.00    +0.000 A 
ATOM     23  C   UNL     1     -41.822-302.293  60.297  0.00  0.00    +0.000 A 
ATOM     24  F   UNL     1     -41.524-303.144  61.288  0.00  0.00    +0.000 F 
ATOM     25  C   UNL     1     -43.148-302.128  59.910  0.00  0.00    +0.000 A 
ATOM     26  C   UNL     1     -43.473-301.188  58.930  0.00  0.00    +0.000 A 
ENDBRANCH  19  20
ENDBRANCH  18  19
ENDBRANCH   6  18
TORSDOF 7
ENDMDL
MODEL 9
REMARK VINA RESULT:     0.004      5.645      7.598
REMARK INTER + INTRA:          -1.700
REMARK INTER:                   0.000
REMARK INTRA:                  -1.700
REMARK UNBOUND:                -1.705
REMARK  Name = 
REMARK  9 active torsions:
REMARK  status: ('A' for Active; 'I' for Inactive)
REMARK    1  A    between atoms: C_1  and  C_2
REMARK    2  A    between atoms: C_2  and  C_3
REMARK    3  A    between atoms: C_3  and  C_4
REMARK    4  A    between atoms: N_6  and  C_7
REMARK    5  A    between atoms: C_7  and  C_8
REMARK    6  A    between atoms: C_7  and  C_9
REMARK    7  A    between atoms: C_14  and  O_15
REMARK    8  A    between atoms: O_15  and  C_16
REMARK    9  A    between atoms: C_16  and  C_17
REMARK                            x       y       z     vdW  Elec       q    Type
REMARK                         _______ _______ _______ _____ _____    ______ ____
ROOT
ATOM      1  C   UNL     1     -45.335-304.195  62.157  0.00  0.00    +0.000 C 
ATOM      2  O   UNL     1     -44.876-304.091  63.286  0.00  0.00    +0.000 OA
ATOM      3  N   UNL     1     -44.883-303.460  61.079  0.00  0.00    +0.000 N 
ATOM      4  C   UNL     1     -43.584-302.834  61.135  0.00  0.00    +0.000 C 
ATOM      5  C   UNL     1     -43.707-301.349  61.395  0.00  0.00    +0.000 C 
ATOM      6  C   UNL     1     -44.691-300.699  60.421  0.00  0.00    +0.000 C 
ATOM      7  C   UNL     1     -45.947-301.536  60.234  0.00  0.00    +0.000 C 
ATOM      8  C   UNL     1     -45.761-302.997  60.033  0.00  0.00    +0.000 C 
ENDROOT
BRANCH   1   9
ATOM      9  C   UNL     1     -46.189-305.400  61.757  0.00  0.00    +0.000 C 
ATOM     10  C   UNL     1     -45.231-306.344  60.959  0.00  0.00    +0.000 C 
BRANCH   9  13
ATOM     11  C   UNL     1     -48.600-304.607  61.547  0.00  0.00    +0.000 C 
ATOM     12  O   UNL     1     -49.569-304.552  60.770  0.00  0.00    +0.000 OA
ATOM     13  N   UNL     1     -47.498-305.280  61.114  0.00  0.00    +0.000 N 
ATOM     14  H   UNL     1     -47.675-305.734  60.230  0.00  0.00    +0.000 HD
BRANCH  11  15
ATOM     15  C   UNL     1     -48.661-303.941  62.924  0.00  0.00    +0.000 C 
BRANCH  15  17
ATOM     16  C   UNL     1     -47.572-301.952  64.105  0.00  0.00    +0.000 C 
ATOM     17  C   UNL     1     -48.450-302.411  62.979  0.00  0.00    +0.000 C 
ENDBRANCH  15  17
ENDBRANCH  11  15
ENDBRANCH   9  13
ENDBRANCH   1   9
BRANCH   6  18
ATOM     18  O   UNL     1     -45.008-299.338  60.775  0.00  0.00    +0.000 OA
BRANCH  18  19
ATOM     19  C   UNL     1     -45.025-298.992  62.177  0.00  0.00    +0.000 C 
BRANCH  19  20
ATOM     20  C   UNL     1     -46.393-298.588  62.702  0.00  0.00    +0.000 A 
ATOM     21  C   UNL     1     -47.534-298.679  61.875  0.00  0.00    +0.000 A 
ATOM     22  C   UNL     1     -48.813-298.706  62.440  0.00  0.00    +0.000 A 
ATOM     23  C   UNL     1     -48.962-298.477  63.801  0.00  0.00    +0.000 A 
ATOM     24  F   UNL     1     -50.189-298.474  64.337  0.00  0.00    +0.000 F 
ATOM     25  C   UNL     1     -47.854-298.279  64.619  0.00  0.00    +0.000 A 
ATOM     26  C   UNL     1     -46.568-298.356  64.078  0.00  0.00    +0.000 A 
ENDBRANCH  19  20
ENDBRANCH  18  19
ENDBRANCH   6  18
TORSDOF 7
ENDMDL
MODEL 10
REMARK VINA RESULT:     0.004      5.859      8.599
REMARK INTER + INTRA:          -1.699
REMARK INTER:                   0.000
REMARK INTRA:                  -1.699
REMARK UNBOUND:                -1.705
REMARK  Name = 
REMARK  9 active torsions:
REMARK  status: ('A' for Active; 'I' for Inactive)
REMARK    1  A    between atoms: C_1  and  C_2
REMARK    2  A    between atoms: C_2  and  C_3
REMARK    3  A    between atoms: C_3  and  C_4
REMARK    4  A    between atoms: N_6  and  C_7
REMARK    5  A    between atoms: C_7  and  C_8
REMARK    6  A    between atoms: C_7  and  C_9
REMARK    7  A    between atoms: C_14  and  O_15
REMARK    8  A    between atoms: O_15  and  C_16
REMARK    9  A    between atoms: C_16  and  C_17
REMARK                            x       y       z     vdW  Elec       q    Type
REMARK                         _______ _______ _______ _____ _____    ______ ____
ROOT
ATOM      1  C   UNL     1     -49.725-301.811  64.130  0.00  0.00    +0.000 C 
ATOM      2  O   UNL     1     -50.008-302.668  64.955  0.00  0.00    +0.000 OA
ATOM      3  N   UNL     1     -49.588-302.067  62.780  0.00  0.00    +0.000 N 
ATOM      4  C   UNL     1     -50.169-303.263  62.217  0.00  0.00    +0.000 C 
ATOM      5  C   UNL     1     -49.111-304.314  61.964  0.00  0.00    +0.000 C 
ATOM      6  C   UNL     1     -47.938-303.736  61.171  0.00  0.00    +0.000 C 
ATOM      7  C   UNL     1     -47.528-302.362  61.678  0.00  0.00    +0.000 C 
ATOM      8  C   UNL     1     -48.618-301.390  61.956  0.00  0.00    +0.000 C 
ENDROOT
BRANCH   1   9
ATOM      9  C   UNL     1     -49.857-300.322  64.456  0.00  0.00    +0.000 C 
ATOM     10  C   UNL     1     -51.195-299.866  63.787  0.00  0.00    +0.000 C 
BRANCH   9  13
ATOM     11  C   UNL     1     -47.508-299.375  64.725  0.00  0.00    +0.000 C 
ATOM     12  O   UNL     1     -46.733-298.495  64.312  0.00  0.00    +0.000 OA
ATOM     13  N   UNL     1     -48.782-299.353  64.242  0.00  0.00    +0.000 N 
ATOM     14  H   UNL     1     -48.939-298.535  63.671  0.00  0.00    +0.000 HD
BRANCH  11  15
ATOM     15  C   UNL     1     -47.035-300.427  65.731  0.00  0.00    +0.000 C 
BRANCH  15  17
ATOM     16  C   UNL     1     -46.573-302.942  65.740  0.00  0.00    +0.000 C 
ATOM     17  C   UNL     1     -46.195-301.601  65.183  0.00  0.00    +0.000 C 
ENDBRANCH  15  17
ENDBRANCH  11  15
ENDBRANCH   9  13
ENDBRANCH   1   9
BRANCH   6  18
ATOM     18  O   UNL     1     -46.814-304.635  61.103  0.00  0.00    +0.000 OA
BRANCH  18  19
ATOM     19  C   UNL     1     -46.578-305.505  62.232  0.00  0.00    +0.000 C 
BRANCH  19  20
ATOM     20  C   UNL     1     -45.275-305.232  62.965  0.00  0.00    +0.000 A 
ATOM     21  C   UNL     1     -44.470-304.128  62.610  0.00  0.00    +0.000 A 
ATOM     22  C   UNL     1     -43.515-303.635  63.505  0.00  0.00    +0.000 A 
ATOM     23  C   UNL     1     -43.250-304.337  64.673  0.00  0.00    +0.000 A 
ATOM     24  F   UNL     1     -42.315-303.881  65.517  0.00  0.00    +0.000 F 
ATOM     25  C   UNL     1     -43.960-305.490  64.993  0.00  0.00    +0.000 A 
ATOM     26  C   UNL     1     -44.988-305.927  64.154  0.00  0.00    +0.000 A 
ENDBRANCH  19  20
ENDBRANCH  18  19
ENDBRANCH   6  18
TORSDOF 7
ENDMDL
