MODEL 1
REMARK VINA RESULT:    -9.375      0.000      0.000
REMARK INTER + INTRA:         -13.223
REMARK INTER:                 -12.115
REMARK INTRA:                  -1.108
REMARK UNBOUND:                -1.108
REMARK  Name = 
REMARK  6 active torsions:
REMARK  status: ('A' for Active; 'I' for Inactive)
REMARK    1  A    between atoms: C_1  and  C_2
REMARK    2  A    between atoms: C_2  and  N_3
REMARK    3  A    between atoms: N_3  and  C_4
REMARK    4  A    between atoms: N_3  and  S_14
REMARK    5  A    between atoms: C_4  and  C_5
REMARK    6  A    between atoms: S_14  and  C_17
REMARK                            x       y       z     vdW  Elec       q    Type
REMARK                         _______ _______ _______ _____ _____    ______ ____
ROOT
ATOM      1  N   UNL     1     -40.377-161.195 310.062  0.00  0.00    +0.000 NA
ENDROOT
BRANCH   1   2
ATOM      2  S   UNL     1     -40.517-161.539 311.747  0.00  0.00    +0.000 S 
ATOM      3  O   UNL     1     -41.110-162.849 311.883  0.00  0.00    +0.000 OA
ATOM      4  O   UNL     1     -39.261-161.244 312.410  0.00  0.00    +0.000 OA
BRANCH   2   5
ATOM      5  C   UNL     1     -41.653-160.356 312.361  0.00  0.00    +0.000 A 
ATOM      6  C   UNL     1     -42.884-160.758 312.890  0.00  0.00    +0.000 A 
ATOM      7  C   UNL     1     -43.743-159.792 313.414  0.00  0.00    +0.000 A 
ATOM      8  C   UNL     1     -43.373-158.445 313.403  0.00  0.00    +0.000 A 
ATOM      9  C   UNL     1     -42.140-158.059 312.874  0.00  0.00    +0.000 A 
ATOM     10  C   UNL     1     -41.279-159.021 312.364  0.00  0.00    +0.000 A 
ATOM     11  F   UNL     1     -40.098-158.626 311.870  0.00  0.00    +0.000 F 
ENDBRANCH   2   5
ENDBRANCH   1   2
BRANCH   1  13
ATOM     12  C   UNL     1     -40.290-162.907 308.167  0.00  0.00    +0.000 C 
ATOM     13  C   UNL     1     -39.592-162.220 309.307  0.00  0.00    +0.000 C 
ENDBRANCH   1  13
BRANCH   1  14
ATOM     14  C   UNL     1     -41.685-160.895 309.364  0.00  0.00    +0.000 C 
BRANCH  14  15
ATOM     15  C   UNL     1     -41.769-159.531 308.711  0.00  0.00    +0.000 A 
ATOM     16  C   UNL     1     -42.634-158.528 309.194  0.00  0.00    +0.000 A 
ATOM     17  C   UNL     1     -42.765-157.310 308.508  0.00  0.00    +0.000 A 
ATOM     18  C   UNL     1     -42.081-157.155 307.318  0.00  0.00    +0.000 A 
ATOM     19  C   UNL     1     -41.260-158.134 306.838  0.00  0.00    +0.000 A 
ATOM     20  C   UNL     1     -41.026-159.277 307.546  0.00  0.00    +0.000 A 
ATOM     21  O   UNL     1     -40.707-157.848 305.635  0.00  0.00    +0.000 OA
ATOM     22  C   UNL     1     -41.274-156.549 305.402  0.00  0.00    +0.000 C 
ATOM     23  O   UNL     1     -42.082-156.066 306.503  0.00  0.00    +0.000 OA
ENDBRANCH  14  15
ENDBRANCH   1  14
TORSDOF 5
ENDMDL
MODEL 2
REMARK VINA RESULT:    -8.830      2.126      4.672
REMARK INTER + INTRA:         -12.518
REMARK INTER:                 -12.288
REMARK INTRA:                  -0.230
REMARK UNBOUND:                -1.108
REMARK  Name = 
REMARK  6 active torsions:
REMARK  status: ('A' for Active; 'I' for Inactive)
REMARK    1  A    between atoms: C_1  and  C_2
REMARK    2  A    between atoms: C_2  and  N_3
REMARK    3  A    between atoms: N_3  and  C_4
REMARK    4  A    between atoms: N_3  and  S_14
REMARK    5  A    between atoms: C_4  and  C_5
REMARK    6  A    between atoms: S_14  and  C_17
REMARK                            x       y       z     vdW  Elec       q    Type
REMARK                         _______ _______ _______ _____ _____    ______ ____
ROOT
ATOM      1  N   UNL     1     -41.415-161.453 309.869  0.00  0.00    +0.000 NA
ENDROOT
BRANCH   1   2
ATOM      2  S   UNL     1     -40.404-162.726 310.446  0.00  0.00    +0.000 S 
ATOM      3  O   UNL     1     -39.448-162.151 311.364  0.00  0.00    +0.000 OA
ATOM      4  O   UNL     1     -41.223-163.847 310.868  0.00  0.00    +0.000 OA
BRANCH   2   5
ATOM      5  C   UNL     1     -39.534-163.295 309.036  0.00  0.00    +0.000 A 
ATOM      6  C   UNL     1     -38.778-162.411 308.260  0.00  0.00    +0.000 A 
ATOM      7  C   UNL     1     -38.061-162.908 307.172  0.00  0.00    +0.000 A 
ATOM      8  C   UNL     1     -38.107-164.271 306.867  0.00  0.00    +0.000 A 
ATOM      9  C   UNL     1     -38.864-165.142 307.651  0.00  0.00    +0.000 A 
ATOM     10  C   UNL     1     -39.568-164.650 308.742  0.00  0.00    +0.000 A 
ATOM     11  F   UNL     1     -40.281-165.507 309.484  0.00  0.00    +0.000 F 
ENDBRANCH   2   5
ENDBRANCH   1   2
BRANCH   1  13
ATOM     12  C   UNL     1     -43.082-160.911 311.728  0.00  0.00    +0.000 C 
ATOM     13  C   UNL     1     -42.818-161.527 310.382  0.00  0.00    +0.000 C 
ENDBRANCH   1  13
BRANCH   1  14
ATOM     14  C   UNL     1     -40.847-160.062 310.044  0.00  0.00    +0.000 C 
BRANCH  14  15
ATOM     15  C   UNL     1     -41.318-159.042 309.028  0.00  0.00    +0.000 A 
ATOM     16  C   UNL     1     -42.395-158.171 309.296  0.00  0.00    +0.000 A 
ATOM     17  C   UNL     1     -42.874-157.307 308.299  0.00  0.00    +0.000 A 
ATOM     18  C   UNL     1     -42.312-157.385 307.040  0.00  0.00    +0.000 A 
ATOM     19  C   UNL     1     -41.284-158.243 306.775  0.00  0.00    +0.000 A 
ATOM     20  C   UNL     1     -40.723-159.008 307.757  0.00  0.00    +0.000 A 
ATOM     21  O   UNL     1     -40.882-158.237 305.481  0.00  0.00    +0.000 OA
ATOM     22  C   UNL     1     -41.783-157.255 304.945  0.00  0.00    +0.000 C 
ATOM     23  O   UNL     1     -42.638-156.649 305.944  0.00  0.00    +0.000 OA
ENDBRANCH  14  15
ENDBRANCH   1  14
TORSDOF 5
ENDMDL
MODEL 3
REMARK VINA RESULT:    -8.806      4.191      7.114
REMARK INTER + INTRA:         -12.488
REMARK INTER:                 -11.934
REMARK INTRA:                  -0.554
REMARK UNBOUND:                -1.108
REMARK  Name = 
REMARK  6 active torsions:
REMARK  status: ('A' for Active; 'I' for Inactive)
REMARK    1  A    between atoms: C_1  and  C_2
REMARK    2  A    between atoms: C_2  and  N_3
REMARK    3  A    between atoms: N_3  and  C_4
REMARK    4  A    between atoms: N_3  and  S_14
REMARK    5  A    between atoms: C_4  and  C_5
REMARK    6  A    between atoms: S_14  and  C_17
REMARK                            x       y       z     vdW  Elec       q    Type
REMARK                         _______ _______ _______ _____ _____    ______ ____
ROOT
ATOM      1  N   UNL     1     -43.261-157.144 306.797  0.00  0.00    +0.000 NA
ENDROOT
BRANCH   1   2
ATOM      2  S   UNL     1     -44.901-156.618 306.906  0.00  0.00    +0.000 S 
ATOM      3  O   UNL     1     -45.286-156.656 308.298  0.00  0.00    +0.000 OA
ATOM      4  O   UNL     1     -45.072-155.396 306.144  0.00  0.00    +0.000 OA
BRANCH   2   5
ATOM      5  C   UNL     1     -45.827-157.832 306.047  0.00  0.00    +0.000 A 
ATOM      6  C   UNL     1     -46.586-158.776 306.746  0.00  0.00    +0.000 A 
ATOM      7  C   UNL     1     -47.349-159.697 306.028  0.00  0.00    +0.000 A 
ATOM      8  C   UNL     1     -47.345-159.671 304.631  0.00  0.00    +0.000 A 
ATOM      9  C   UNL     1     -46.585-158.721 303.947  0.00  0.00    +0.000 A 
ATOM     10  C   UNL     1     -45.835-157.796 304.661  0.00  0.00    +0.000 A 
ATOM     11  F   UNL     1     -45.121-156.890 303.982  0.00  0.00    +0.000 F 
ENDBRANCH   2   5
ENDBRANCH   1   2
BRANCH   1  13
ATOM     12  C   UNL     1     -41.586-157.264 304.871  0.00  0.00    +0.000 C 
ATOM     13  C   UNL     1     -42.473-156.425 305.748  0.00  0.00    +0.000 C 
ENDBRANCH   1  13
BRANCH   1  14
ATOM     14  C   UNL     1     -42.514-157.170 308.112  0.00  0.00    +0.000 C 
BRANCH  14  15
ATOM     15  C   UNL     1     -41.934-158.515 308.497  0.00  0.00    +0.000 A 
ATOM     16  C   UNL     1     -40.981-159.171 307.691  0.00  0.00    +0.000 A 
ATOM     17  C   UNL     1     -40.538-160.462 308.022  0.00  0.00    +0.000 A 
ATOM     18  C   UNL     1     -41.112-161.091 309.109  0.00  0.00    +0.000 A 
ATOM     19  C   UNL     1     -42.051-160.465 309.877  0.00  0.00    +0.000 A 
ATOM     20  C   UNL     1     -42.411-159.168 309.646  0.00  0.00    +0.000 A 
ATOM     21  O   UNL     1     -42.553-161.236 310.871  0.00  0.00    +0.000 OA
ATOM     22  C   UNL     1     -41.809-162.445 310.648  0.00  0.00    +0.000 C 
ATOM     23  O   UNL     1     -40.833-162.334 309.584  0.00  0.00    +0.000 OA
ENDBRANCH  14  15
ENDBRANCH   1  14
TORSDOF 5
ENDMDL
MODEL 4
REMARK VINA RESULT:    -8.793      2.831      5.713
REMARK INTER + INTRA:         -12.472
REMARK INTER:                 -11.851
REMARK INTRA:                  -0.621
REMARK UNBOUND:                -1.108
REMARK  Name = 
REMARK  6 active torsions:
REMARK  status: ('A' for Active; 'I' for Inactive)
REMARK    1  A    between atoms: C_1  and  C_2
REMARK    2  A    between atoms: C_2  and  N_3
REMARK    3  A    between atoms: N_3  and  C_4
REMARK    4  A    between atoms: N_3  and  S_14
REMARK    5  A    between atoms: C_4  and  C_5
REMARK    6  A    between atoms: S_14  and  C_17
REMARK                            x       y       z     vdW  Elec       q    Type
REMARK                         _______ _______ _______ _____ _____    ______ ____
ROOT
ATOM      1  N   UNL     1     -40.774-161.010 311.033  0.00  0.00    +0.000 NA
ENDROOT
BRANCH   1   2
ATOM      2  S   UNL     1     -41.612-159.502 311.009  0.00  0.00    +0.000 S 
ATOM      3  O   UNL     1     -42.990-159.756 311.360  0.00  0.00    +0.000 OA
ATOM      4  O   UNL     1     -40.852-158.510 311.746  0.00  0.00    +0.000 OA
BRANCH   2   5
ATOM      5  C   UNL     1     -41.560-158.977 309.339  0.00  0.00    +0.000 A 
ATOM      6  C   UNL     1     -40.804-159.678 308.394  0.00  0.00    +0.000 A 
ATOM      7  C   UNL     1     -40.825-159.260 307.064  0.00  0.00    +0.000 A 
ATOM      8  C   UNL     1     -41.589-158.151 306.691  0.00  0.00    +0.000 A 
ATOM      9  C   UNL     1     -42.341-157.462 307.644  0.00  0.00    +0.000 A 
ATOM     10  C   UNL     1     -42.331-157.886 308.966  0.00  0.00    +0.000 A 
ATOM     11  F   UNL     1     -43.067-157.213 309.860  0.00  0.00    +0.000 F 
ENDBRANCH   2   5
ENDBRANCH   1   2
BRANCH   1  13
ATOM     12  C   UNL     1     -40.960-161.531 313.528  0.00  0.00    +0.000 C 
ATOM     13  C   UNL     1     -40.084-161.288 312.331  0.00  0.00    +0.000 C 
ENDBRANCH   1  13
BRANCH   1  14
ATOM     14  C   UNL     1     -41.596-162.200 310.592  0.00  0.00    +0.000 C 
BRANCH  14  15
ATOM     15  C   UNL     1     -40.859-163.210 309.736  0.00  0.00    +0.000 A 
ATOM     16  C   UNL     1     -41.092-164.595 309.856  0.00  0.00    +0.000 A 
ATOM     17  C   UNL     1     -40.322-165.512 309.123  0.00  0.00    +0.000 A 
ATOM     18  C   UNL     1     -39.293-165.023 308.342  0.00  0.00    +0.000 A 
ATOM     19  C   UNL     1     -39.054-163.683 308.241  0.00  0.00    +0.000 A 
ATOM     20  C   UNL     1     -39.862-162.767 308.852  0.00  0.00    +0.000 A 
ATOM     21  O   UNL     1     -37.977-163.371 307.480  0.00  0.00    +0.000 OA
ATOM     22  C   UNL     1     -37.555-164.689 307.095  0.00  0.00    +0.000 C 
ATOM     23  O   UNL     1     -38.432-165.739 307.569  0.00  0.00    +0.000 OA
ENDBRANCH  14  15
ENDBRANCH   1  14
TORSDOF 5
ENDMDL
