MODEL 1
REMARK VINA RESULT:     0.000      0.000      0.000
REMARK INTER + INTRA:          -2.178
REMARK INTER:                   0.000
REMARK INTRA:                  -2.178
REMARK UNBOUND:                -2.178
REMARK  Name = 
REMARK  9 active torsions:
REMARK  status: ('A' for Active; 'I' for Inactive)
REMARK    1  A    between atoms: C_1  and  C_2
REMARK    2  A    between atoms: C_2  and  N_3
REMARK    3  A    between atoms: C_4  and  C_5
REMARK    4  A    between atoms: C_5  and  O_6
REMARK    5  A    between atoms: O_6  and  C_7
REMARK    6  A    between atoms: C_17  and  S_18
REMARK    7  A    between atoms: S_18  and  C_19
REMARK    8  A    between atoms: C_19  and  C_20
REMARK    9  A    between atoms: N_22  and  C_23
REMARK                            x       y       z     vdW  Elec       q    Type
REMARK                         _______ _______ _______ _____ _____    ______ ____
ROOT
ATOM      1  N   UNL     1     -43.269-300.328  57.395  0.00  0.00    +0.000 N 
ATOM      2  C   UNL     1     -44.482-299.674  57.340  0.00  0.00    +0.000 A 
ATOM      3  N   UNL     1     -45.255-300.324  56.488  0.00  0.00    +0.000 NA
ATOM      4  N   UNL     1     -44.543-301.399  55.993  0.00  0.00    +0.000 NA
ATOM      5  C   UNL     1     -43.367-301.427  56.583  0.00  0.00    +0.000 A 
ENDROOT
BRANCH   1   7
ATOM      6  C   UNL     1     -41.787-300.439  59.385  0.00  0.00    +0.000 C 
ATOM      7  C   UNL     1     -42.081-299.858  58.038  0.00  0.00    +0.000 C 
ENDBRANCH   1   7
BRANCH   2   8
ATOM      8  C   UNL     1     -44.776-298.375  58.032  0.00  0.00    +0.000 C 
BRANCH   8   9
ATOM      9  O   UNL     1     -45.602-298.515  59.215  0.00  0.00    +0.000 OA
BRANCH   9  10
ATOM     10  C   UNL     1     -45.046-299.084  60.333  0.00  0.00    +0.000 A 
ATOM     11  C   UNL     1     -44.226-298.345  61.186  0.00  0.00    +0.000 A 
ATOM     12  C   UNL     1     -43.702-298.868  62.356  0.00  0.00    +0.000 A 
ATOM     13  C   UNL     1     -44.067-300.139  62.739  0.00  0.00    +0.000 A 
ATOM     14  F   UNL     1     -43.601-300.623  63.896  0.00  0.00    +0.000 F 
ATOM     15  C   UNL     1     -44.933-300.896  61.957  0.00  0.00    +0.000 A 
ATOM     16  C   UNL     1     -45.419-300.372  60.749  0.00  0.00    +0.000 A 
ATOM     17 CL   UNL     1     -46.489-301.357  59.817  0.00  0.00    +0.000 Cl
ENDBRANCH   9  10
ENDBRANCH   8   9
ENDBRANCH   2   8
BRANCH   5  18
ATOM     18  S   UNL     1     -42.299-302.794  56.524  0.00  0.00    +0.000 S 
BRANCH  18  19
ATOM     19  C   UNL     1     -42.413-303.875  57.974  0.00  0.00    +0.000 C 
BRANCH  19  20
ATOM     20  C   UNL     1     -43.672-303.886  58.867  0.00  0.00    +0.000 C 
ATOM     21  O   UNL     1     -44.784-304.006  58.356  0.00  0.00    +0.000 OA
ATOM     22  N   UNL     1     -43.662-303.786  60.228  0.00  0.00    +0.000 N 
ATOM     23  H   UNL     1     -44.618-303.809  60.582  0.00  0.00    +0.000 HD
BRANCH  22  24
ATOM     24  C   UNL     1     -42.646-304.120  61.168  0.00  0.00    +0.000 C 
ATOM     25  C   UNL     1     -41.852-303.070  61.888  0.00  0.00    +0.000 C 
ATOM     26  C   UNL     1     -42.801-303.962  62.645  0.00  0.00    +0.000 C 
ENDBRANCH  22  24
ENDBRANCH  19  20
ENDBRANCH  18  19
ENDBRANCH   5  18
TORSDOF 8
ENDMDL
MODEL 2
REMARK VINA RESULT:     0.000      2.874      4.276
REMARK INTER + INTRA:          -2.177
REMARK INTER:                   0.000
REMARK INTRA:                  -2.177
REMARK UNBOUND:                -2.178
REMARK  Name = 
REMARK  9 active torsions:
REMARK  status: ('A' for Active; 'I' for Inactive)
REMARK    1  A    between atoms: C_1  and  C_2
REMARK    2  A    between atoms: C_2  and  N_3
REMARK    3  A    between atoms: C_4  and  C_5
REMARK    4  A    between atoms: C_5  and  O_6
REMARK    5  A    between atoms: O_6  and  C_7
REMARK    6  A    between atoms: C_17  and  S_18
REMARK    7  A    between atoms: S_18  and  C_19
REMARK    8  A    between atoms: C_19  and  C_20
REMARK    9  A    between atoms: N_22  and  C_23
REMARK                            x       y       z     vdW  Elec       q    Type
REMARK                         _______ _______ _______ _____ _____    ______ ____
ROOT
ATOM      1  N   UNL     1     -43.246-299.838  58.884  0.00  0.00    +0.000 N 
ATOM      2  C   UNL     1     -43.550-301.174  58.716  0.00  0.00    +0.000 A 
ATOM      3  N   UNL     1     -42.501-301.762  58.168  0.00  0.00    +0.000 NA
ATOM      4  N   UNL     1     -41.519-300.807  57.983  0.00  0.00    +0.000 NA
ATOM      5  C   UNL     1     -41.954-299.663  58.464  0.00  0.00    +0.000 A 
ENDROOT
BRANCH   1   7
ATOM      6  C   UNL     1     -44.124-298.385  60.697  0.00  0.00    +0.000 C 
ATOM      7  C   UNL     1     -44.158-298.803  59.261  0.00  0.00    +0.000 C 
ENDBRANCH   1   7
BRANCH   2   8
ATOM      8  C   UNL     1     -44.897-301.776  58.987  0.00  0.00    +0.000 C 
BRANCH   8   9
ATOM      9  O   UNL     1     -44.956-302.551  60.211  0.00  0.00    +0.000 OA
BRANCH   9  10
ATOM     10  C   UNL     1     -44.920-301.881  61.409  0.00  0.00    +0.000 A 
ATOM     11  C   UNL     1     -46.062-301.269  61.926  0.00  0.00    +0.000 A 
ATOM     12  C   UNL     1     -46.077-300.642  63.160  0.00  0.00    +0.000 A 
ATOM     13  C   UNL     1     -44.948-300.690  63.946  0.00  0.00    +0.000 A 
ATOM     14  F   UNL     1     -44.982-300.128  65.160  0.00  0.00    +0.000 F 
ATOM     15  C   UNL     1     -43.802-301.342  63.504  0.00  0.00    +0.000 A 
ATOM     16  C   UNL     1     -43.784-301.934  62.231  0.00  0.00    +0.000 A 
ATOM     17 CL   UNL     1     -42.333-302.728  61.733  0.00  0.00    +0.000 Cl
ENDBRANCH   9  10
ENDBRANCH   8   9
ENDBRANCH   2   8
BRANCH   5  18
ATOM     18  S   UNL     1     -40.926-298.296  58.758  0.00  0.00    +0.000 S 
BRANCH  18  19
ATOM     19  C   UNL     1     -40.370-298.153  60.477  0.00  0.00    +0.000 C 
BRANCH  19  20
ATOM     20  C   UNL     1     -40.357-299.377  61.418  0.00  0.00    +0.000 C 
ATOM     21  O   UNL     1     -39.827-300.425  61.053  0.00  0.00    +0.000 OA
ATOM     22  N   UNL     1     -40.889-299.398  62.674  0.00  0.00    +0.000 N 
ATOM     23  H   UNL     1     -40.763-300.322  63.087  0.00  0.00    +0.000 HD
BRANCH  22  24
ATOM     24  C   UNL     1     -41.118-298.335  63.594  0.00  0.00    +0.000 C 
ATOM     25  C   UNL     1     -42.497-297.826  63.894  0.00  0.00    +0.000 C 
ATOM     26  C   UNL     1     -41.696-298.532  64.958  0.00  0.00    +0.000 C 
ENDBRANCH  22  24
ENDBRANCH  19  20
ENDBRANCH  18  19
ENDBRANCH   5  18
TORSDOF 8
ENDMDL
MODEL 3
REMARK VINA RESULT:     0.000      2.994      5.336
REMARK INTER + INTRA:          -2.177
REMARK INTER:                   0.000
REMARK INTRA:                  -2.177
REMARK UNBOUND:                -2.178
REMARK  Name = 
REMARK  9 active torsions:
REMARK  status: ('A' for Active; 'I' for Inactive)
REMARK    1  A    between atoms: C_1  and  C_2
REMARK    2  A    between atoms: C_2  and  N_3
REMARK    3  A    between atoms: C_4  and  C_5
REMARK    4  A    between atoms: C_5  and  O_6
REMARK    5  A    between atoms: O_6  and  C_7
REMARK    6  A    between atoms: C_17  and  S_18
REMARK    7  A    between atoms: S_18  and  C_19
REMARK    8  A    between atoms: C_19  and  C_20
REMARK    9  A    between atoms: N_22  and  C_23
REMARK                            x       y       z     vdW  Elec       q    Type
REMARK                         _______ _______ _______ _____ _____    ______ ____
ROOT
ATOM      1  N   UNL     1     -42.668-300.963  57.468  0.00  0.00    +0.000 N 
ATOM      2  C   UNL     1     -42.477-302.293  57.785  0.00  0.00    +0.000 A 
ATOM      3  N   UNL     1     -41.538-302.358  58.712  0.00  0.00    +0.000 NA
ATOM      4  N   UNL     1     -41.122-301.071  58.996  0.00  0.00    +0.000 NA
ATOM      5  C   UNL     1     -41.844-300.233  58.282  0.00  0.00    +0.000 A 
ENDROOT
BRANCH   1   7
ATOM      6  C   UNL     1     -44.816-299.959  56.728  0.00  0.00    +0.000 C 
ATOM      7  C   UNL     1     -43.447-300.455  56.382  0.00  0.00    +0.000 C 
ENDBRANCH   1   7
BRANCH   2   8
ATOM      8  C   UNL     1     -43.138-303.436  57.072  0.00  0.00    +0.000 C 
BRANCH   8   9
ATOM      9  O   UNL     1     -44.217-304.049  57.822  0.00  0.00    +0.000 OA
BRANCH   9  10
ATOM     10  C   UNL     1     -45.389-303.349  57.967  0.00  0.00    +0.000 A 
ATOM     11  C   UNL     1     -46.335-303.310  56.942  0.00  0.00    +0.000 A 
ATOM     12  C   UNL     1     -47.555-302.669  57.078  0.00  0.00    +0.000 A 
ATOM     13  C   UNL     1     -47.885-302.117  58.296  0.00  0.00    +0.000 A 
ATOM     14  F   UNL     1     -49.086-301.545  58.440  0.00  0.00    +0.000 F 
ATOM     15  C   UNL     1     -47.004-302.185  59.370  0.00  0.00    +0.000 A 
ATOM     16  C   UNL     1     -45.751-302.796  59.205  0.00  0.00    +0.000 A 
ATOM     17 CL   UNL     1     -44.696-302.849  60.572  0.00  0.00    +0.000 Cl
ENDBRANCH   9  10
ENDBRANCH   8   9
ENDBRANCH   2   8
BRANCH   5  18
ATOM     18  S   UNL     1     -41.901-298.525  58.583  0.00  0.00    +0.000 S 
BRANCH  18  19
ATOM     19  C   UNL     1     -43.321-298.003  59.580  0.00  0.00    +0.000 C 
BRANCH  19  20
ATOM     20  C   UNL     1     -44.063-298.999  60.498  0.00  0.00    +0.000 C 
ATOM     21  O   UNL     1     -43.426-299.697  61.285  0.00  0.00    +0.000 OA
ATOM     22  N   UNL     1     -45.416-299.170  60.528  0.00  0.00    +0.000 N 
ATOM     23  H   UNL     1     -45.658-299.889  61.210  0.00  0.00    +0.000 HD
BRANCH  22  24
ATOM     24  C   UNL     1     -46.465-298.273  60.177  0.00  0.00    +0.000 C 
ATOM     25  C   UNL     1     -47.279-298.450  58.929  0.00  0.00    +0.000 C 
ATOM     26  C   UNL     1     -47.915-298.614  60.285  0.00  0.00    +0.000 C 
ENDBRANCH  22  24
ENDBRANCH  19  20
ENDBRANCH  18  19
ENDBRANCH   5  18
TORSDOF 8
ENDMDL
MODEL 4
REMARK VINA RESULT:     0.000      2.913      4.765
REMARK INTER + INTRA:          -2.177
REMARK INTER:                   0.000
REMARK INTRA:                  -2.177
REMARK UNBOUND:                -2.178
REMARK  Name = 
REMARK  9 active torsions:
REMARK  status: ('A' for Active; 'I' for Inactive)
REMARK    1  A    between atoms: C_1  and  C_2
REMARK    2  A    between atoms: C_2  and  N_3
REMARK    3  A    between atoms: C_4  and  C_5
REMARK    4  A    between atoms: C_5  and  O_6
REMARK    5  A    between atoms: O_6  and  C_7
REMARK    6  A    between atoms: C_17  and  S_18
REMARK    7  A    between atoms: S_18  and  C_19
REMARK    8  A    between atoms: C_19  and  C_20
REMARK    9  A    between atoms: N_22  and  C_23
REMARK                            x       y       z     vdW  Elec       q    Type
REMARK                         _______ _______ _______ _____ _____    ______ ____
ROOT
ATOM      1  N   UNL     1     -42.668-300.963  57.468  0.00  0.00    +0.000 N 
ATOM      2  C   UNL     1     -43.353-302.110  57.815  0.00  0.00    +0.000 A 
ATOM      3  N   UNL     1     -42.539-302.867  58.530  0.00  0.00    +0.000 NA
ATOM      4  N   UNL     1     -41.330-302.209  58.647  0.00  0.00    +0.000 NA
ATOM      5  C   UNL     1     -41.431-301.041  58.051  0.00  0.00    +0.000 A 
ENDROOT
BRANCH   1   7
ATOM      6  C   UNL     1     -43.695-298.727  57.131  0.00  0.00    +0.000 C 
ATOM      7  C   UNL     1     -43.102-299.967  56.539  0.00  0.00    +0.000 C 
ENDBRANCH   1   7
BRANCH   2   8
ATOM      8  C   UNL     1     -44.726-302.459  57.321  0.00  0.00    +0.000 C 
BRANCH   8   9
ATOM      9  O   UNL     1     -45.768-302.276  58.311  0.00  0.00    +0.000 OA
BRANCH   9  10
ATOM     10  C   UNL     1     -46.123-300.995  58.655  0.00  0.00    +0.000 A 
ATOM     11  C   UNL     1     -46.977-300.243  57.847  0.00  0.00    +0.000 A 
ATOM     12  C   UNL     1     -47.407-298.974  58.194  0.00  0.00    +0.000 A 
ATOM     13  C   UNL     1     -47.046-298.461  59.420  0.00  0.00    +0.000 A 
ATOM     14  F   UNL     1     -47.506-297.256  59.775  0.00  0.00    +0.000 F 
ATOM     15  C   UNL     1     -46.248-299.195  60.291  0.00  0.00    +0.000 A 
ATOM     16  C   UNL     1     -45.780-300.462  59.907  0.00  0.00    +0.000 A 
ATOM     17 CL   UNL     1     -44.790-301.327  61.027  0.00  0.00    +0.000 Cl
ENDBRANCH   9  10
ENDBRANCH   8   9
ENDBRANCH   2   8
BRANCH   5  18
ATOM     18  S   UNL     1     -40.281-299.758  58.258  0.00  0.00    +0.000 S 
BRANCH  18  19
ATOM     19  C   UNL     1     -40.769-298.527  59.495  0.00  0.00    +0.000 C 
BRANCH  19  20
ATOM     20  C   UNL     1     -41.790-298.868  60.603  0.00  0.00    +0.000 C 
ATOM     21  O   UNL     1     -41.643-299.884  61.280  0.00  0.00    +0.000 OA
ATOM     22  N   UNL     1     -42.876-298.105  60.920  0.00  0.00    +0.000 N 
ATOM     23  H   UNL     1     -43.398-298.547  61.678  0.00  0.00    +0.000 HD
BRANCH  22  24
ATOM     24  C   UNL     1     -43.105-296.711  60.743  0.00  0.00    +0.000 C 
ATOM     25  C   UNL     1     -44.051-296.188  59.702  0.00  0.00    +0.000 C 
ATOM     26  C   UNL     1     -44.359-296.019  61.167  0.00  0.00    +0.000 C 
ENDBRANCH  22  24
ENDBRANCH  19  20
ENDBRANCH  18  19
ENDBRANCH   5  18
TORSDOF 8
ENDMDL
MODEL 5
REMARK VINA RESULT:     0.000      5.600      7.085
REMARK INTER + INTRA:          -2.177
REMARK INTER:                   0.000
REMARK INTRA:                  -2.177
REMARK UNBOUND:                -2.178
REMARK  Name = 
REMARK  9 active torsions:
REMARK  status: ('A' for Active; 'I' for Inactive)
REMARK    1  A    between atoms: C_1  and  C_2
REMARK    2  A    between atoms: C_2  and  N_3
REMARK    3  A    between atoms: C_4  and  C_5
REMARK    4  A    between atoms: C_5  and  O_6
REMARK    5  A    between atoms: O_6  and  C_7
REMARK    6  A    between atoms: C_17  and  S_18
REMARK    7  A    between atoms: S_18  and  C_19
REMARK    8  A    between atoms: C_19  and  C_20
REMARK    9  A    between atoms: N_22  and  C_23
REMARK                            x       y       z     vdW  Elec       q    Type
REMARK                         _______ _______ _______ _____ _____    ______ ____
ROOT
ATOM      1  N   UNL     1     -47.551-299.694  60.480  0.00  0.00    +0.000 N 
ATOM      2  C   UNL     1     -47.782-298.335  60.551  0.00  0.00    +0.000 A 
ATOM      3  N   UNL     1     -46.837-297.727  59.855  0.00  0.00    +0.000 NA
ATOM      4  N   UNL     1     -45.996-298.691  59.334  0.00  0.00    +0.000 NA
ATOM      5  C   UNL     1     -46.462-299.875  59.669  0.00  0.00    +0.000 A 
ENDROOT
BRANCH   1   7
ATOM      6  C   UNL     1     -49.304-301.452  60.541  0.00  0.00    +0.000 C 
ATOM      7  C   UNL     1     -48.213-300.706  61.242  0.00  0.00    +0.000 C 
ENDBRANCH   1   7
BRANCH   2   8
ATOM      8  C   UNL     1     -48.844-297.700  61.399  0.00  0.00    +0.000 C 
BRANCH   8   9
ATOM      9  O   UNL     1     -49.992-297.233  60.648  0.00  0.00    +0.000 OA
BRANCH   9  10
ATOM     10  C   UNL     1     -50.850-298.167  60.121  0.00  0.00    +0.000 A 
ATOM     11  C   UNL     1     -51.818-298.784  60.914  0.00  0.00    +0.000 A 
ATOM     12  C   UNL     1     -52.740-299.681  60.402  0.00  0.00    +0.000 A 
ATOM     13  C   UNL     1     -52.759-299.914  59.045  0.00  0.00    +0.000 A 
ATOM     14  F   UNL     1     -53.685-300.741  58.546  0.00  0.00    +0.000 F 
ATOM     15  C   UNL     1     -51.856-299.276  58.201  0.00  0.00    +0.000 A 
ATOM     16  C   UNL     1     -50.896-298.405  58.738  0.00  0.00    +0.000 A 
ATOM     17 CL   UNL     1     -49.798-297.643  57.644  0.00  0.00    +0.000 Cl
ENDBRANCH   9  10
ENDBRANCH   8   9
ENDBRANCH   2   8
BRANCH   5  18
ATOM     18  S   UNL     1     -45.925-301.355  58.939  0.00  0.00    +0.000 S 
BRANCH  18  19
ATOM     19  C   UNL     1     -46.997-301.945  57.603  0.00  0.00    +0.000 C 
BRANCH  19  20
ATOM     20  C   UNL     1     -47.940-300.982  56.850  0.00  0.00    +0.000 C 
ATOM     21  O   UNL     1     -47.501-299.927  56.394  0.00  0.00    +0.000 OA
ATOM     22  N   UNL     1     -49.265-301.211  56.622  0.00  0.00    +0.000 N 
ATOM     23  H   UNL     1     -49.669-300.424  56.113  0.00  0.00    +0.000 HD
BRANCH  22  24
ATOM     24  C   UNL     1     -49.986-302.436  56.538  0.00  0.00    +0.000 C 
ATOM     25  C   UNL     1     -50.922-302.883  57.622  0.00  0.00    +0.000 C 
ATOM     26  C   UNL     1     -51.452-302.516  56.261  0.00  0.00    +0.000 C 
ENDBRANCH  22  24
ENDBRANCH  19  20
ENDBRANCH  18  19
ENDBRANCH   5  18
TORSDOF 8
ENDMDL
MODEL 6
REMARK VINA RESULT:     0.000      2.448      3.224
REMARK INTER + INTRA:          -2.177
REMARK INTER:                   0.000
REMARK INTRA:                  -2.177
REMARK UNBOUND:                -2.178
REMARK  Name = 
REMARK  9 active torsions:
REMARK  status: ('A' for Active; 'I' for Inactive)
REMARK    1  A    between atoms: C_1  and  C_2
REMARK    2  A    between atoms: C_2  and  N_3
REMARK    3  A    between atoms: C_4  and  C_5
REMARK    4  A    between atoms: C_5  and  O_6
REMARK    5  A    between atoms: O_6  and  C_7
REMARK    6  A    between atoms: C_17  and  S_18
REMARK    7  A    between atoms: S_18  and  C_19
REMARK    8  A    between atoms: C_19  and  C_20
REMARK    9  A    between atoms: N_22  and  C_23
REMARK                            x       y       z     vdW  Elec       q    Type
REMARK                         _______ _______ _______ _____ _____    ______ ____
ROOT
ATOM      1  N   UNL     1     -42.330-302.635  58.570  0.00  0.00    +0.000 N 
ATOM      2  C   UNL     1     -42.646-301.350  58.177  0.00  0.00    +0.000 A 
ATOM      3  N   UNL     1     -42.633-301.315  56.856  0.00  0.00    +0.000 NA
ATOM      4  N   UNL     1     -42.309-302.577  56.395  0.00  0.00    +0.000 NA
ATOM      5  C   UNL     1     -42.181-303.379  57.430  0.00  0.00    +0.000 A 
ENDROOT
BRANCH   1   7
ATOM      6  C   UNL     1     -43.160-303.749  60.628  0.00  0.00    +0.000 C 
ATOM      7  C   UNL     1     -42.044-303.066  59.903  0.00  0.00    +0.000 C 
ENDBRANCH   1   7
BRANCH   2   8
ATOM      8  C   UNL     1     -42.822-300.195  59.119  0.00  0.00    +0.000 C 
BRANCH   8   9
ATOM      9  O   UNL     1     -44.205-299.813  59.325  0.00  0.00    +0.000 OA
BRANCH   9  10
ATOM     10  C   UNL     1     -45.009-300.647  60.061  0.00  0.00    +0.000 A 
ATOM     11  C   UNL     1     -44.965-300.644  61.455  0.00  0.00    +0.000 A 
ATOM     12  C   UNL     1     -45.806-301.424  62.230  0.00  0.00    +0.000 A 
ATOM     13  C   UNL     1     -46.779-302.173  61.607  0.00  0.00    +0.000 A 
ATOM     14  F   UNL     1     -47.625-302.886  62.361  0.00  0.00    +0.000 F 
ATOM     15  C   UNL     1     -46.908-302.164  60.223  0.00  0.00    +0.000 A 
ATOM     16  C   UNL     1     -46.018-301.405  59.446  0.00  0.00    +0.000 A 
ATOM     17 CL   UNL     1     -46.222-301.432  57.731  0.00  0.00    +0.000 Cl
ENDBRANCH   9  10
ENDBRANCH   8   9
ENDBRANCH   2   8
BRANCH   5  18
ATOM     18  S   UNL     1     -42.129-305.109  57.299  0.00  0.00    +0.000 S 
BRANCH  18  19
ATOM     19  C   UNL     1     -43.724-305.914  57.599  0.00  0.00    +0.000 C 
BRANCH  19  20
ATOM     20  C   UNL     1     -45.053-305.144  57.439  0.00  0.00    +0.000 C 
ATOM     21  O   UNL     1     -45.267-304.499  56.413  0.00  0.00    +0.000 OA
ATOM     22  N   UNL     1     -46.057-305.125  58.362  0.00  0.00    +0.000 N 
ATOM     23  H   UNL     1     -46.822-304.539  58.027  0.00  0.00    +0.000 HD
BRANCH  22  24
ATOM     24  C   UNL     1     -46.398-306.071  59.370  0.00  0.00    +0.000 C 
ATOM     25  C   UNL     1     -46.146-305.807  60.826  0.00  0.00    +0.000 C 
ATOM     26  C   UNL     1     -47.555-305.906  60.301  0.00  0.00    +0.000 C 
ENDBRANCH  22  24
ENDBRANCH  19  20
ENDBRANCH  18  19
ENDBRANCH   5  18
TORSDOF 8
ENDMDL
MODEL 7
REMARK VINA RESULT:     0.000      6.501      7.961
REMARK INTER + INTRA:          -2.177
REMARK INTER:                   0.000
REMARK INTRA:                  -2.177
REMARK UNBOUND:                -2.178
REMARK  Name = 
REMARK  9 active torsions:
REMARK  status: ('A' for Active; 'I' for Inactive)
REMARK    1  A    between atoms: C_1  and  C_2
REMARK    2  A    between atoms: C_2  and  N_3
REMARK    3  A    between atoms: C_4  and  C_5
REMARK    4  A    between atoms: C_5  and  O_6
REMARK    5  A    between atoms: O_6  and  C_7
REMARK    6  A    between atoms: C_17  and  S_18
REMARK    7  A    between atoms: S_18  and  C_19
REMARK    8  A    between atoms: C_19  and  C_20
REMARK    9  A    between atoms: N_22  and  C_23
REMARK                            x       y       z     vdW  Elec       q    Type
REMARK                         _______ _______ _______ _____ _____    ______ ____
ROOT
ATOM      1  N   UNL     1     -48.467-300.303  60.427  0.00  0.00    +0.000 N 
ATOM      2  C   UNL     1     -47.700-300.791  59.389  0.00  0.00    +0.000 A 
ATOM      3  N   UNL     1     -46.670-301.432  59.913  0.00  0.00    +0.000 NA
ATOM      4  N   UNL     1     -46.771-301.359  61.289  0.00  0.00    +0.000 NA
ATOM      5  C   UNL     1     -47.883-300.724  61.592  0.00  0.00    +0.000 A 
ENDROOT
BRANCH   1   7
ATOM      6  C   UNL     1     -50.931-299.992  60.367  0.00  0.00    +0.000 C 
ATOM      7  C   UNL     1     -49.562-299.390  60.315  0.00  0.00    +0.000 C 
ENDBRANCH   1   7
BRANCH   2   8
ATOM      8  C   UNL     1     -47.952-300.496  57.940  0.00  0.00    +0.000 C 
BRANCH   8   9
ATOM      9  O   UNL     1     -48.538-301.603  57.210  0.00  0.00    +0.000 OA
BRANCH   9  10
ATOM     10  C   UNL     1     -49.849-301.927  57.461  0.00  0.00    +0.000 A 
ATOM     11  C   UNL     1     -50.892-301.200  56.886  0.00  0.00    +0.000 A 
ATOM     12  C   UNL     1     -52.223-301.538  57.064  0.00  0.00    +0.000 A 
ATOM     13  C   UNL     1     -52.531-302.681  57.768  0.00  0.00    +0.000 A 
ATOM     14  F   UNL     1     -53.815-303.033  57.895  0.00  0.00    +0.000 F 
ATOM     15  C   UNL     1     -51.526-303.476  58.309  0.00  0.00    +0.000 A 
ATOM     16  C   UNL     1     -50.182-303.096  58.161  0.00  0.00    +0.000 A 
ATOM     17 CL   UNL     1     -48.976-304.120  58.855  0.00  0.00    +0.000 Cl
ENDBRANCH   9  10
ENDBRANCH   8   9
ENDBRANCH   2   8
BRANCH   5  18
ATOM     18  S   UNL     1     -48.577-300.718  63.183  0.00  0.00    +0.000 S 
BRANCH  18  19
ATOM     19  C   UNL     1     -49.888-301.947  63.416  0.00  0.00    +0.000 C 
BRANCH  19  20
ATOM     20  C   UNL     1     -49.988-303.192  62.507  0.00  0.00    +0.000 C 
ATOM     21  O   UNL     1     -48.996-303.893  62.319  0.00  0.00    +0.000 OA
ATOM     22  N   UNL     1     -51.127-303.609  61.883  0.00  0.00    +0.000 N 
ATOM     23  H   UNL     1     -50.932-304.448  61.336  0.00  0.00    +0.000 HD
BRANCH  22  24
ATOM     24  C   UNL     1     -52.494-303.394  62.221  0.00  0.00    +0.000 C 
ATOM     25  C   UNL     1     -53.369-302.460  61.438  0.00  0.00    +0.000 C 
ATOM     26  C   UNL     1     -53.637-303.943  61.432  0.00  0.00    +0.000 C 
ENDBRANCH  22  24
ENDBRANCH  19  20
ENDBRANCH  18  19
ENDBRANCH   5  18
TORSDOF 8
ENDMDL
MODEL 8
REMARK VINA RESULT:     0.000      3.274      5.058
REMARK INTER + INTRA:          -2.177
REMARK INTER:                   0.000
REMARK INTRA:                  -2.177
REMARK UNBOUND:                -2.178
REMARK  Name = 
REMARK  9 active torsions:
REMARK  status: ('A' for Active; 'I' for Inactive)
REMARK    1  A    between atoms: C_1  and  C_2
REMARK    2  A    between atoms: C_2  and  N_3
REMARK    3  A    between atoms: C_4  and  C_5
REMARK    4  A    between atoms: C_5  and  O_6
REMARK    5  A    between atoms: O_6  and  C_7
REMARK    6  A    between atoms: C_17  and  S_18
REMARK    7  A    between atoms: S_18  and  C_19
REMARK    8  A    between atoms: C_19  and  C_20
REMARK    9  A    between atoms: N_22  and  C_23
REMARK                            x       y       z     vdW  Elec       q    Type
REMARK                         _______ _______ _______ _____ _____    ______ ____
ROOT
ATOM      1  N   UNL     1     -46.515-299.493  58.487  0.00  0.00    +0.000 N 
ATOM      2  C   UNL     1     -46.258-300.711  59.083  0.00  0.00    +0.000 A 
ATOM      3  N   UNL     1     -45.618-301.464  58.206  0.00  0.00    +0.000 NA
ATOM      4  N   UNL     1     -45.460-300.734  57.044  0.00  0.00    +0.000 NA
ATOM      5  C   UNL     1     -45.955-299.530  57.238  0.00  0.00    +0.000 A 
ENDROOT
BRANCH   1   7
ATOM      6  C   UNL     1     -46.652-297.316  59.675  0.00  0.00    +0.000 C 
ATOM      7  C   UNL     1     -47.353-298.457  59.006  0.00  0.00    +0.000 C 
ENDBRANCH   1   7
BRANCH   2   8
ATOM      8  C   UNL     1     -46.763-301.115  60.437  0.00  0.00    +0.000 C 
BRANCH   8   9
ATOM      9  O   UNL     1     -45.749-301.090  61.472  0.00  0.00    +0.000 OA
BRANCH   9  10
ATOM     10  C   UNL     1     -45.295-299.871  61.910  0.00  0.00    +0.000 A 
ATOM     11  C   UNL     1     -46.027-299.118  62.828  0.00  0.00    +0.000 A 
ATOM     12  C   UNL     1     -45.569-297.916  63.340  0.00  0.00    +0.000 A 
ATOM     13  C   UNL     1     -44.309-297.482  62.995  0.00  0.00    +0.000 A 
ATOM     14  F   UNL     1     -43.848-296.347  63.532  0.00  0.00    +0.000 F 
ATOM     15  C   UNL     1     -43.512-298.227  62.132  0.00  0.00    +0.000 A 
ATOM     16  C   UNL     1     -44.007-299.421  61.583  0.00  0.00    +0.000 A 
ATOM     17 CL   UNL     1     -42.975-300.304  60.516  0.00  0.00    +0.000 Cl
ENDBRANCH   9  10
ENDBRANCH   8   9
ENDBRANCH   2   8
BRANCH   5  18
ATOM     18  S   UNL     1     -45.654-298.190  56.177  0.00  0.00    +0.000 S 
BRANCH  18  19
ATOM     19  C   UNL     1     -44.313-297.104  56.729  0.00  0.00    +0.000 C 
BRANCH  19  20
ATOM     20  C   UNL     1     -43.226-297.608  57.705  0.00  0.00    +0.000 C 
ATOM     21  O   UNL     1     -42.639-298.663  57.474  0.00  0.00    +0.000 OA
ATOM     22  N   UNL     1     -42.834-296.954  58.836  0.00  0.00    +0.000 N 
ATOM     23  H   UNL     1     -42.110-297.493  59.312  0.00  0.00    +0.000 HD
BRANCH  22  24
ATOM     24  C   UNL     1     -42.891-295.570  59.166  0.00  0.00    +0.000 C 
ATOM     25  C   UNL     1     -43.873-295.031  60.164  0.00  0.00    +0.000 C 
ATOM     26  C   UNL     1     -42.395-295.006  60.457  0.00  0.00    +0.000 C 
ENDBRANCH  22  24
ENDBRANCH  19  20
ENDBRANCH  18  19
ENDBRANCH   5  18
TORSDOF 8
ENDMDL
MODEL 9
REMARK VINA RESULT:     0.000      3.995      6.052
REMARK INTER + INTRA:          -2.177
REMARK INTER:                   0.000
REMARK INTRA:                  -2.177
REMARK UNBOUND:                -2.178
REMARK  Name = 
REMARK  9 active torsions:
REMARK  status: ('A' for Active; 'I' for Inactive)
REMARK    1  A    between atoms: C_1  and  C_2
REMARK    2  A    between atoms: C_2  and  N_3
REMARK    3  A    between atoms: C_4  and  C_5
REMARK    4  A    between atoms: C_5  and  O_6
REMARK    5  A    between atoms: O_6  and  C_7
REMARK    6  A    between atoms: C_17  and  S_18
REMARK    7  A    between atoms: S_18  and  C_19
REMARK    8  A    between atoms: C_19  and  C_20
REMARK    9  A    between atoms: N_22  and  C_23
REMARK                            x       y       z     vdW  Elec       q    Type
REMARK                         _______ _______ _______ _____ _____    ______ ____
ROOT
ATOM      1  N   UNL     1     -43.978-299.332  57.418  0.00  0.00    +0.000 N 
ATOM      2  C   UNL     1     -43.673-299.466  56.078  0.00  0.00    +0.000 A 
ATOM      3  N   UNL     1     -44.044-298.355  55.466  0.00  0.00    +0.000 NA
ATOM      4  N   UNL     1     -44.588-297.504  56.408  0.00  0.00    +0.000 NA
ATOM      5  C   UNL     1     -44.497-298.077  57.589  0.00  0.00    +0.000 A 
ENDROOT
BRANCH   1   7
ATOM      6  C   UNL     1     -42.717-300.372  59.287  0.00  0.00    +0.000 C 
ATOM      7  C   UNL     1     -43.925-300.365  58.405  0.00  0.00    +0.000 C 
ENDBRANCH   1   7
BRANCH   2   8
ATOM      8  C   UNL     1     -43.147-300.723  55.451  0.00  0.00    +0.000 C 
BRANCH   8   9
ATOM      9  O   UNL     1     -41.733-300.674  55.137  0.00  0.00    +0.000 OA
BRANCH   9  10
ATOM     10  C   UNL     1     -40.834-300.713  56.173  0.00  0.00    +0.000 A 
ATOM     11  C   UNL     1     -40.495-301.919  56.787  0.00  0.00    +0.000 A 
ATOM     12  C   UNL     1     -39.545-302.003  57.791  0.00  0.00    +0.000 A 
ATOM     13  C   UNL     1     -38.847-300.870  58.143  0.00  0.00    +0.000 A 
ATOM     14  F   UNL     1     -37.892-300.965  59.076  0.00  0.00    +0.000 F 
ATOM     15  C   UNL     1     -39.101-299.654  57.517  0.00  0.00    +0.000 A 
ATOM     16  C   UNL     1     -40.100-299.572  56.535  0.00  0.00    +0.000 A 
ATOM     17 CL   UNL     1     -40.375-298.037  55.793  0.00  0.00    +0.000 Cl
ENDBRANCH   9  10
ENDBRANCH   8   9
ENDBRANCH   2   8
BRANCH   5  18
ATOM     18  S   UNL     1     -44.731-297.227  59.084  0.00  0.00    +0.000 S 
BRANCH  18  19
ATOM     19  C   UNL     1     -43.191-296.680  59.865  0.00  0.00    +0.000 C 
BRANCH  19  20
ATOM     20  C   UNL     1     -41.896-296.503  59.044  0.00  0.00    +0.000 C 
ATOM     21  O   UNL     1     -41.916-295.847  58.003  0.00  0.00    +0.000 OA
ATOM     22  N   UNL     1     -40.680-297.017  59.388  0.00  0.00    +0.000 N 
ATOM     23  H   UNL     1     -39.988-296.769  58.680  0.00  0.00    +0.000 HD
BRANCH  22  24
ATOM     24  C   UNL     1     -40.158-297.370  60.665  0.00  0.00    +0.000 C 
ATOM     25  C   UNL     1     -39.981-298.800  61.083  0.00  0.00    +0.000 C 
ATOM     26  C   UNL     1     -38.782-297.911  60.876  0.00  0.00    +0.000 C 
ENDBRANCH  22  24
ENDBRANCH  19  20
ENDBRANCH  18  19
ENDBRANCH   5  18
TORSDOF 8
ENDMDL
MODEL 10
REMARK VINA RESULT:     0.000      4.945      7.000
REMARK INTER + INTRA:          -2.177
REMARK INTER:                   0.000
REMARK INTRA:                  -2.177
REMARK UNBOUND:                -2.178
REMARK  Name = 
REMARK  9 active torsions:
REMARK  status: ('A' for Active; 'I' for Inactive)
REMARK    1  A    between atoms: C_1  and  C_2
REMARK    2  A    between atoms: C_2  and  N_3
REMARK    3  A    between atoms: C_4  and  C_5
REMARK    4  A    between atoms: C_5  and  O_6
REMARK    5  A    between atoms: O_6  and  C_7
REMARK    6  A    between atoms: C_17  and  S_18
REMARK    7  A    between atoms: S_18  and  C_19
REMARK    8  A    between atoms: C_19  and  C_20
REMARK    9  A    between atoms: N_22  and  C_23
REMARK                            x       y       z     vdW  Elec       q    Type
REMARK                         _______ _______ _______ _____ _____    ______ ____
ROOT
ATOM      1  N   UNL     1     -46.936-298.659  60.761  0.00  0.00    +0.000 N 
ATOM      2  C   UNL     1     -46.974-299.974  61.179  0.00  0.00    +0.000 A 
ATOM      3  N   UNL     1     -45.785-300.505  60.954  0.00  0.00    +0.000 NA
ATOM      4  N   UNL     1     -44.978-299.535  60.392  0.00  0.00    +0.000 NA
ATOM      5  C   UNL     1     -45.661-298.412  60.327  0.00  0.00    +0.000 A 
ENDROOT
BRANCH   1   7
ATOM      6  C   UNL     1     -48.244-296.798  61.758  0.00  0.00    +0.000 C 
ATOM      7  C   UNL     1     -48.054-297.776  60.642  0.00  0.00    +0.000 C 
ENDBRANCH   1   7
BRANCH   2   8
ATOM      8  C   UNL     1     -48.210-300.673  61.662  0.00  0.00    +0.000 C 
BRANCH   8   9
ATOM      9  O   UNL     1     -48.255-300.859  63.099  0.00  0.00    +0.000 OA
BRANCH   9  10
ATOM     10  C   UNL     1     -48.464-299.758  63.892  0.00  0.00    +0.000 A 
ATOM     11  C   UNL     1     -49.745-299.238  64.077  0.00  0.00    +0.000 A 
ATOM     12  C   UNL     1     -50.001-298.170  64.921  0.00  0.00    +0.000 A 
ATOM     13  C   UNL     1     -48.969-297.650  65.668  0.00  0.00    +0.000 A 
ATOM     14  F   UNL     1     -49.229-296.652  66.521  0.00  0.00    +0.000 F 
ATOM     15  C   UNL     1     -47.684-298.174  65.569  0.00  0.00    +0.000 A 
ATOM     16  C   UNL     1     -47.429-299.225  64.675  0.00  0.00    +0.000 A 
ATOM     17 CL   UNL     1     -45.814-299.835  64.590  0.00  0.00    +0.000 Cl
ENDBRANCH   9  10
ENDBRANCH   8   9
ENDBRANCH   2   8
BRANCH   5  18
ATOM     18  S   UNL     1     -44.932-296.867  60.021  0.00  0.00    +0.000 S 
BRANCH  18  19
ATOM     19  C   UNL     1     -44.591-295.907  61.520  0.00  0.00    +0.000 C 
BRANCH  19  20
ATOM     20  C   UNL     1     -44.454-296.594  62.896  0.00  0.00    +0.000 C 
ATOM     21  O   UNL     1     -43.708-297.563  63.024  0.00  0.00    +0.000 OA
ATOM     22  N   UNL     1     -45.099-296.198  64.031  0.00  0.00    +0.000 N 
ATOM     23  H   UNL     1     -44.850-296.817  64.803  0.00  0.00    +0.000 HD
BRANCH  22  24
ATOM     24  C   UNL     1     -45.609-294.921  64.401  0.00  0.00    +0.000 C 
ATOM     25  C   UNL     1     -47.081-294.630  64.429  0.00  0.00    +0.000 C 
ATOM     26  C   UNL     1     -46.282-294.646  65.706  0.00  0.00    +0.000 C 
ENDBRANCH  22  24
ENDBRANCH  19  20
ENDBRANCH  18  19
ENDBRANCH   5  18
TORSDOF 8
ENDMDL
