MODEL 1
REMARK VINA RESULT:    -9.084      0.000      0.000
REMARK INTER + INTRA:         -11.616
REMARK INTER:                 -11.208
REMARK INTRA:                  -0.408
REMARK UNBOUND:                -0.408
REMARK  Name = 
REMARK  6 active torsions:
REMARK  status: ('A' for Active; 'I' for Inactive)
REMARK    1  A    between atoms: C_1  and  C_2
REMARK    2  A    between atoms: C_2  and  C_3
REMARK    3  A    between atoms: C_6  and  C_7
REMARK    4  A    between atoms: N_11  and  C_12
REMARK    5  A    between atoms: C_12  and  C_13
REMARK    6  A    between atoms: C_13  and  N_14
REMARK                            x       y       z     vdW  Elec       q    Type
REMARK                         _______ _______ _______ _____ _____    ______ ____
ROOT
ATOM      1  C   UNL     1     -41.759-160.165 311.458  0.00  0.00    +0.000 A 
ATOM      2  C   UNL     1     -41.658-161.367 312.198  0.00  0.00    +0.000 A 
ATOM      3  C   UNL     1     -41.143-162.538 311.658  0.00  0.00    +0.000 A 
ATOM      4  C   UNL     1     -40.726-162.586 310.333  0.00  0.00    +0.000 A 
ATOM      5  C   UNL     1     -40.205-163.846 309.718  0.00  0.00    +0.000 C 
ATOM      6  C   UNL     1     -40.835-161.402 309.588  0.00  0.00    +0.000 A 
ATOM      7  S   UNL     1     -40.391-161.204 307.945  0.00  0.00    +0.000 S 
ATOM      8  C   UNL     1     -40.944-159.599 307.987  0.00  0.00    +0.000 A 
ATOM      9  N   UNL     1     -40.919-158.938 306.827  0.00  0.00    +0.000 N 
ATOM     10  N   UNL     1     -41.374-159.168 309.158  0.00  0.00    +0.000 NA
ATOM     11  C   UNL     1     -41.338-160.202 310.097  0.00  0.00    +0.000 A 
ATOM     12  H   UNL     1     -40.370-159.314 306.053  0.00  0.00    +0.000 HD
ENDROOT
BRANCH   1  14
ATOM     13  C   UNL     1     -41.310-157.878 312.486  0.00  0.00    +0.000 C 
ATOM     14  C   UNL     1     -42.352-158.946 312.143  0.00  0.00    +0.000 C 
ENDBRANCH   1  14
BRANCH   9  15
ATOM     15  C   UNL     1     -41.194-157.532 306.743  0.00  0.00    +0.000 C 
BRANCH  15  16
ATOM     16  C   UNL     1     -42.590-157.321 306.160  0.00  0.00    +0.000 C 
BRANCH  16  17
ATOM     17  N   UNL     1     -42.794-155.931 305.668  0.00  0.00    +0.000 NA
ATOM     18  C   UNL     1     -42.721-154.977 306.799  0.00  0.00    +0.000 C 
ATOM     19  C   UNL     1     -43.859-155.190 307.808  0.00  0.00    +0.000 C 
ATOM     20  O   UNL     1     -45.140-155.040 307.178  0.00  0.00    +0.000 OA
ATOM     21  C   UNL     1     -45.285-155.952 306.079  0.00  0.00    +0.000 C 
ATOM     22  C   UNL     1     -44.141-155.788 305.057  0.00  0.00    +0.000 C 
ENDBRANCH  16  17
ENDBRANCH  15  16
ENDBRANCH   9  15
TORSDOF 4
ENDMDL
MODEL 2
REMARK VINA RESULT:    -8.749      1.617      3.278
REMARK INTER + INTRA:         -11.203
REMARK INTER:                 -10.835
REMARK INTRA:                  -0.368
REMARK UNBOUND:                -0.408
REMARK  Name = 
REMARK  6 active torsions:
REMARK  status: ('A' for Active; 'I' for Inactive)
REMARK    1  A    between atoms: C_1  and  C_2
REMARK    2  A    between atoms: C_2  and  C_3
REMARK    3  A    between atoms: C_6  and  C_7
REMARK    4  A    between atoms: N_11  and  C_12
REMARK    5  A    between atoms: C_12  and  C_13
REMARK    6  A    between atoms: C_13  and  N_14
REMARK                            x       y       z     vdW  Elec       q    Type
REMARK                         _______ _______ _______ _____ _____    ______ ____
ROOT
ATOM      1  C   UNL     1     -39.850-162.623 308.572  0.00  0.00    +0.000 A 
ATOM      2  C   UNL     1     -39.831-163.361 309.780  0.00  0.00    +0.000 A 
ATOM      3  C   UNL     1     -40.405-162.891 310.954  0.00  0.00    +0.000 A 
ATOM      4  C   UNL     1     -41.006-161.638 310.999  0.00  0.00    +0.000 A 
ATOM      5  C   UNL     1     -41.594-161.094 312.262  0.00  0.00    +0.000 C 
ATOM      6  C   UNL     1     -41.016-160.894 309.809  0.00  0.00    +0.000 A 
ATOM      7  S   UNL     1     -41.692-159.332 309.608  0.00  0.00    +0.000 S 
ATOM      8  C   UNL     1     -41.157-159.308 307.997  0.00  0.00    +0.000 A 
ATOM      9  N   UNL     1     -41.354-158.168 307.329  0.00  0.00    +0.000 N 
ATOM     10  N   UNL     1     -40.570-160.408 307.567  0.00  0.00    +0.000 NA
ATOM     11  C   UNL     1     -40.460-161.335 308.606  0.00  0.00    +0.000 A 
ATOM     12  H   UNL     1     -42.003-157.477 307.707  0.00  0.00    +0.000 HD
ENDROOT
BRANCH   1  14
ATOM     13  C   UNL     1     -37.704-162.839 307.217  0.00  0.00    +0.000 C 
ATOM     14  C   UNL     1     -39.180-163.226 307.350  0.00  0.00    +0.000 C 
ENDBRANCH   1  14
BRANCH   9  15
ATOM     15  C   UNL     1     -41.110-158.056 305.919  0.00  0.00    +0.000 C 
BRANCH  15  16
ATOM     16  C   UNL     1     -41.846-156.834 305.371  0.00  0.00    +0.000 C 
BRANCH  16  17
ATOM     17  N   UNL     1     -42.874-156.321 306.317  0.00  0.00    +0.000 NA
ATOM     18  C   UNL     1     -44.222-156.764 305.889  0.00  0.00    +0.000 C 
ATOM     19  C   UNL     1     -44.624-156.163 304.534  0.00  0.00    +0.000 C 
ATOM     20  O   UNL     1     -44.619-154.729 304.585  0.00  0.00    +0.000 OA
ATOM     21  C   UNL     1     -43.332-154.230 304.978  0.00  0.00    +0.000 C 
ATOM     22  C   UNL     1     -42.880-154.835 306.323  0.00  0.00    +0.000 C 
ENDBRANCH  16  17
ENDBRANCH  15  16
ENDBRANCH   9  15
TORSDOF 4
ENDMDL
MODEL 3
REMARK VINA RESULT:    -8.612      1.601      2.046
REMARK INTER + INTRA:         -11.034
REMARK INTER:                 -10.786
REMARK INTRA:                  -0.248
REMARK UNBOUND:                -0.408
REMARK  Name = 
REMARK  6 active torsions:
REMARK  status: ('A' for Active; 'I' for Inactive)
REMARK    1  A    between atoms: C_1  and  C_2
REMARK    2  A    between atoms: C_2  and  C_3
REMARK    3  A    between atoms: C_6  and  C_7
REMARK    4  A    between atoms: N_11  and  C_12
REMARK    5  A    between atoms: C_12  and  C_13
REMARK    6  A    between atoms: C_13  and  N_14
REMARK                            x       y       z     vdW  Elec       q    Type
REMARK                         _______ _______ _______ _____ _____    ______ ____
ROOT
ATOM      1  C   UNL     1     -41.473-161.045 311.850  0.00  0.00    +0.000 A 
ATOM      2  C   UNL     1     -40.845-162.305 311.989  0.00  0.00    +0.000 A 
ATOM      3  C   UNL     1     -40.154-162.917 310.950  0.00  0.00    +0.000 A 
ATOM      4  C   UNL     1     -40.077-162.318 309.699  0.00  0.00    +0.000 A 
ATOM      5  C   UNL     1     -39.373-162.975 308.555  0.00  0.00    +0.000 C 
ATOM      6  C   UNL     1     -40.709-161.074 309.548  0.00  0.00    +0.000 A 
ATOM      7  S   UNL     1     -40.756-160.139 308.113  0.00  0.00    +0.000 S 
ATOM      8  C   UNL     1     -41.731-158.988 308.895  0.00  0.00    +0.000 A 
ATOM      9  N   UNL     1     -42.186-157.989 308.133  0.00  0.00    +0.000 N 
ATOM     10  N   UNL     1     -41.971-159.208 310.173  0.00  0.00    +0.000 NA
ATOM     11  C   UNL     1     -41.404-160.422 310.570  0.00  0.00    +0.000 A 
ATOM     12  H   UNL     1     -41.756-157.823 307.223  0.00  0.00    +0.000 HD
ENDROOT
BRANCH   1  14
ATOM     13  C   UNL     1     -43.731-160.411 312.843  0.00  0.00    +0.000 C 
ATOM     14  C   UNL     1     -42.214-160.475 313.046  0.00  0.00    +0.000 C 
ENDBRANCH   1  14
BRANCH   9  15
ATOM     15  C   UNL     1     -42.875-156.859 308.688  0.00  0.00    +0.000 C 
BRANCH  15  16
ATOM     16  C   UNL     1     -44.118-156.560 307.850  0.00  0.00    +0.000 C 
BRANCH  16  17
ATOM     17  N   UNL     1     -44.152-155.151 307.371  0.00  0.00    +0.000 NA
ATOM     18  C   UNL     1     -45.266-154.968 306.411  0.00  0.00    +0.000 C 
ATOM     19  C   UNL     1     -45.068-155.796 305.133  0.00  0.00    +0.000 C 
ATOM     20  O   UNL     1     -43.844-155.439 304.473  0.00  0.00    +0.000 OA
ATOM     21  C   UNL     1     -42.717-155.610 305.344  0.00  0.00    +0.000 C 
ATOM     22  C   UNL     1     -42.893-154.816 306.655  0.00  0.00    +0.000 C 
ENDBRANCH  16  17
ENDBRANCH  15  16
ENDBRANCH   9  15
TORSDOF 4
ENDMDL
MODEL 4
REMARK VINA RESULT:    -8.096      4.458      7.542
REMARK INTER + INTRA:         -10.397
REMARK INTER:                 -10.128
REMARK INTRA:                  -0.270
REMARK UNBOUND:                -0.408
REMARK  Name = 
REMARK  6 active torsions:
REMARK  status: ('A' for Active; 'I' for Inactive)
REMARK    1  A    between atoms: C_1  and  C_2
REMARK    2  A    between atoms: C_2  and  C_3
REMARK    3  A    between atoms: C_6  and  C_7
REMARK    4  A    between atoms: N_11  and  C_12
REMARK    5  A    between atoms: C_12  and  C_13
REMARK    6  A    between atoms: C_13  and  N_14
REMARK                            x       y       z     vdW  Elec       q    Type
REMARK                         _______ _______ _______ _____ _____    ______ ____
ROOT
ATOM      1  C   UNL     1     -41.877-158.968 309.763  0.00  0.00    +0.000 A 
ATOM      2  C   UNL     1     -42.549-158.526 310.928  0.00  0.00    +0.000 A 
ATOM      3  C   UNL     1     -42.472-159.202 312.139  0.00  0.00    +0.000 A 
ATOM      4  C   UNL     1     -41.743-160.380 312.250  0.00  0.00    +0.000 A 
ATOM      5  C   UNL     1     -41.679-161.146 313.533  0.00  0.00    +0.000 C 
ATOM      6  C   UNL     1     -41.085-160.833 311.096  0.00  0.00    +0.000 A 
ATOM      7  S   UNL     1     -40.128-162.249 310.977  0.00  0.00    +0.000 S 
ATOM      8  C   UNL     1     -39.893-161.952 309.321  0.00  0.00    +0.000 A 
ATOM      9  N   UNL     1     -39.230-162.892 308.643  0.00  0.00    +0.000 N 
ATOM     10  N   UNL     1     -40.417-160.833 308.856  0.00  0.00    +0.000 NA
ATOM     11  C   UNL     1     -41.129-160.177 309.863  0.00  0.00    +0.000 A 
ATOM     12  H   UNL     1     -38.701-163.596 309.160  0.00  0.00    +0.000 HD
ENDROOT
BRANCH   1  14
ATOM     13  C   UNL     1     -43.442-157.561 308.328  0.00  0.00    +0.000 C 
ATOM     14  C   UNL     1     -42.042-158.161 308.488  0.00  0.00    +0.000 C 
ENDBRANCH   1  14
BRANCH   9  15
ATOM     15  C   UNL     1     -38.811-162.701 307.284  0.00  0.00    +0.000 C 
BRANCH  15  16
ATOM     16  C   UNL     1     -37.924-163.870 306.856  0.00  0.00    +0.000 C 
BRANCH  16  17
ATOM     17  N   UNL     1     -37.995-165.012 307.808  0.00  0.00    +0.000 NA
ATOM     18  C   UNL     1     -36.701-165.734 307.832  0.00  0.00    +0.000 C 
ATOM     19  C   UNL     1     -36.381-166.390 306.480  0.00  0.00    +0.000 C 
ATOM     20  O   UNL     1     -37.407-167.320 306.104  0.00  0.00    +0.000 OA
ATOM     21  C   UNL     1     -38.690-166.680 306.044  0.00  0.00    +0.000 C 
ATOM     22  C   UNL     1     -39.034-165.983 307.377  0.00  0.00    +0.000 C 
ENDBRANCH  16  17
ENDBRANCH  15  16
ENDBRANCH   9  15
TORSDOF 4
ENDMDL
