MODEL 1
REMARK VINA RESULT:    -9.814      0.000      0.000
REMARK INTER + INTRA:         -14.596
REMARK INTER:                 -13.831
REMARK INTRA:                  -0.766
REMARK UNBOUND:                -0.766
REMARK  Name = 
REMARK  9 active torsions:
REMARK  status: ('A' for Active; 'I' for Inactive)
REMARK    1  A    between atoms: C_1  and  C_2
REMARK    2  A    between atoms: C_2  and  C_3
REMARK    3  A    between atoms: C_3  and  C_4
REMARK    4  A    between atoms: C_3  and  C_5
REMARK    5  A    between atoms: C_5  and  N_6
REMARK    6  A    between atoms: C_10  and  C_11
REMARK    7  A    between atoms: C_11  and  O_12
REMARK    8  A    between atoms: O_12  and  C_13
REMARK    9  A    between atoms: C_13  and  C_15
REMARK                            x       y       z     vdW  Elec       q    Type
REMARK                         _______ _______ _______ _____ _____    ______ ____
ROOT
ATOM      1  O   UNL     1     -40.955-158.955 310.676  0.00  0.00    +0.000 OA
ENDROOT
BRANCH   1   2
ATOM      2  C   UNL     1     -40.732-159.972 311.556  0.00  0.00    +0.000 C 
ATOM      3  O   UNL     1     -40.565-159.879 312.777  0.00  0.00    +0.000 OA
BRANCH   2   4
ATOM      4  C   UNL     1     -40.797-161.302 310.926  0.00  0.00    +0.000 A 
ATOM      5  C   UNL     1     -41.313-162.401 311.609  0.00  0.00    +0.000 A 
ATOM      6  C   UNL     1     -41.234-163.662 311.027  0.00  0.00    +0.000 A 
ATOM      7  C   UNL     1     -40.466-163.800 309.873  0.00  0.00    +0.000 A 
ATOM      8  C   UNL     1     -40.198-165.051 309.302  0.00  0.00    +0.000 A 
ATOM      9  C   UNL     1     -39.346-165.134 308.203  0.00  0.00    +0.000 A 
ATOM     10  C   UNL     1     -38.768-163.980 307.679  0.00  0.00    +0.000 A 
ATOM     11  C   UNL     1     -39.051-162.739 308.240  0.00  0.00    +0.000 A 
ATOM     12  C   UNL     1     -39.901-162.629 309.312  0.00  0.00    +0.000 A 
ATOM     13  N   UNL     1     -40.112-161.401 309.777  0.00  0.00    +0.000 NA
ENDBRANCH   2   4
ENDBRANCH   1   2
BRANCH   1  14
ATOM     14  C   UNL     1     -42.331-158.615 310.298  0.00  0.00    +0.000 C 
BRANCH  14  19
ATOM     15  N   UNL     1     -43.433-156.793 307.204  0.00  0.00    +0.000 NA
ATOM     16  C   UNL     1     -42.270-157.036 306.352  0.00  0.00    +0.000 C 
ATOM     17  C   UNL     1     -41.461-158.319 306.645  0.00  0.00    +0.000 C 
ATOM     18  O   UNL     1     -41.200-158.517 308.060  0.00  0.00    +0.000 OA
ATOM     19  C   UNL     1     -42.436-158.398 308.787  0.00  0.00    +0.000 C 
ATOM     20  C   UNL     1     -42.976-156.981 308.568  0.00  0.00    +0.000 C 
BRANCH  15  21
ATOM     21  C   UNL     1     -44.732-157.489 307.138  0.00  0.00    +0.000 C 
BRANCH  21  22
ATOM     22  C   UNL     1     -45.338-157.081 305.772  0.00  0.00    +0.000 C 
ATOM     23  C   UNL     1     -45.681-155.591 305.719  0.00  0.00    +0.000 C 
BRANCH  22  25
ATOM     24  C   UNL     1     -46.590-158.634 304.215  0.00  0.00    +0.000 C 
ATOM     25  C   UNL     1     -46.578-157.940 305.558  0.00  0.00    +0.000 C 
ENDBRANCH  22  25
ENDBRANCH  21  22
ENDBRANCH  15  21
ENDBRANCH  14  19
ENDBRANCH   1  14
TORSDOF 7
ENDMDL
MODEL 2
REMARK VINA RESULT:    -9.564      2.362      4.271
REMARK INTER + INTRA:         -14.243
REMARK INTER:                 -13.563
REMARK INTRA:                  -0.680
REMARK UNBOUND:                -0.766
REMARK  Name = 
REMARK  9 active torsions:
REMARK  status: ('A' for Active; 'I' for Inactive)
REMARK    1  A    between atoms: C_1  and  C_2
REMARK    2  A    between atoms: C_2  and  C_3
REMARK    3  A    between atoms: C_3  and  C_4
REMARK    4  A    between atoms: C_3  and  C_5
REMARK    5  A    between atoms: C_5  and  N_6
REMARK    6  A    between atoms: C_10  and  C_11
REMARK    7  A    between atoms: C_11  and  O_12
REMARK    8  A    between atoms: O_12  and  C_13
REMARK    9  A    between atoms: C_13  and  C_15
REMARK                            x       y       z     vdW  Elec       q    Type
REMARK                         _______ _______ _______ _____ _____    ______ ____
ROOT
ATOM      1  O   UNL     1     -40.206-162.735 311.351  0.00  0.00    +0.000 OA
ENDROOT
BRANCH   1   2
ATOM      2  C   UNL     1     -40.660-163.698 310.498  0.00  0.00    +0.000 C 
ATOM      3  O   UNL     1     -41.735-164.304 310.564  0.00  0.00    +0.000 OA
BRANCH   2   4
ATOM      4  C   UNL     1     -39.761-163.925 309.355  0.00  0.00    +0.000 A 
ATOM      5  C   UNL     1     -39.155-162.863 308.688  0.00  0.00    +0.000 A 
ATOM      6  C   UNL     1     -38.419-163.113 307.535  0.00  0.00    +0.000 A 
ATOM      7  C   UNL     1     -38.484-164.392 306.986  0.00  0.00    +0.000 A 
ATOM      8  C   UNL     1     -37.907-164.700 305.747  0.00  0.00    +0.000 A 
ATOM      9  C   UNL     1     -38.086-165.971 305.206  0.00  0.00    +0.000 A 
ATOM     10  C   UNL     1     -38.831-166.925 305.895  0.00  0.00    +0.000 A 
ATOM     11  C   UNL     1     -39.387-166.618 307.133  0.00  0.00    +0.000 A 
ATOM     12  C   UNL     1     -39.211-165.378 307.695  0.00  0.00    +0.000 A 
ATOM     13  N   UNL     1     -39.778-165.180 308.882  0.00  0.00    +0.000 NA
ENDBRANCH   2   4
ENDBRANCH   1   2
BRANCH   1  14
ATOM     14  C   UNL     1     -41.169-161.935 312.116  0.00  0.00    +0.000 C 
BRANCH  14  19
ATOM     15  N   UNL     1     -42.356-158.775 310.471  0.00  0.00    +0.000 NA
ATOM     16  C   UNL     1     -41.879-157.799 311.448  0.00  0.00    +0.000 C 
ATOM     17  C   UNL     1     -40.645-158.209 312.282  0.00  0.00    +0.000 C 
ATOM     18  O   UNL     1     -40.734-159.561 312.804  0.00  0.00    +0.000 OA
ATOM     19  C   UNL     1     -41.069-160.459 311.730  0.00  0.00    +0.000 C 
ATOM     20  C   UNL     1     -42.435-160.040 311.176  0.00  0.00    +0.000 C 
BRANCH  15  21
ATOM     21  C   UNL     1     -41.731-159.100 309.174  0.00  0.00    +0.000 C 
BRANCH  21  22
ATOM     22  C   UNL     1     -42.056-157.893 308.257  0.00  0.00    +0.000 C 
ATOM     23  C   UNL     1     -43.553-157.574 308.241  0.00  0.00    +0.000 C 
BRANCH  22  25
ATOM     24  C   UNL     1     -40.883-157.077 306.170  0.00  0.00    +0.000 C 
ATOM     25  C   UNL     1     -41.551-158.242 306.863  0.00  0.00    +0.000 C 
ENDBRANCH  22  25
ENDBRANCH  21  22
ENDBRANCH  15  21
ENDBRANCH  14  19
ENDBRANCH   1  14
TORSDOF 7
ENDMDL
MODEL 3
REMARK VINA RESULT:    -9.203      1.864      7.753
REMARK INTER + INTRA:         -13.734
REMARK INTER:                 -13.062
REMARK INTRA:                  -0.673
REMARK UNBOUND:                -0.766
REMARK  Name = 
REMARK  9 active torsions:
REMARK  status: ('A' for Active; 'I' for Inactive)
REMARK    1  A    between atoms: C_1  and  C_2
REMARK    2  A    between atoms: C_2  and  C_3
REMARK    3  A    between atoms: C_3  and  C_4
REMARK    4  A    between atoms: C_3  and  C_5
REMARK    5  A    between atoms: C_5  and  N_6
REMARK    6  A    between atoms: C_10  and  C_11
REMARK    7  A    between atoms: C_11  and  O_12
REMARK    8  A    between atoms: O_12  and  C_13
REMARK    9  A    between atoms: C_13  and  C_15
REMARK                            x       y       z     vdW  Elec       q    Type
REMARK                         _______ _______ _______ _____ _____    ______ ____
ROOT
ATOM      1  O   UNL     1     -40.739-159.300 308.346  0.00  0.00    +0.000 OA
ENDROOT
BRANCH   1   2
ATOM      2  C   UNL     1     -41.840-158.518 308.536  0.00  0.00    +0.000 C 
ATOM      3  O   UNL     1     -42.460-158.349 309.592  0.00  0.00    +0.000 OA
BRANCH   2   4
ATOM      4  C   UNL     1     -42.221-157.760 307.334  0.00  0.00    +0.000 A 
ATOM      5  C   UNL     1     -41.268-157.348 306.405  0.00  0.00    +0.000 A 
ATOM      6  C   UNL     1     -41.653-156.523 305.353  0.00  0.00    +0.000 A 
ATOM      7  C   UNL     1     -42.937-155.982 305.387  0.00  0.00    +0.000 A 
ATOM      8  C   UNL     1     -43.363-155.020 304.462  0.00  0.00    +0.000 A 
ATOM      9  C   UNL     1     -44.625-154.448 304.603  0.00  0.00    +0.000 A 
ATOM     10  C   UNL     1     -45.453-154.831 305.656  0.00  0.00    +0.000 A 
ATOM     11  C   UNL     1     -45.030-155.798 306.561  0.00  0.00    +0.000 A 
ATOM     12  C   UNL     1     -43.798-156.391 306.434  0.00  0.00    +0.000 A 
ATOM     13  N   UNL     1     -43.484-157.306 307.347  0.00  0.00    +0.000 NA
ENDBRANCH   2   4
ENDBRANCH   1   2
BRANCH   1  14
ATOM     14  C   UNL     1     -40.898-160.650 307.792  0.00  0.00    +0.000 C 
BRANCH  14  19
ATOM     15  N   UNL     1     -41.435-162.446 311.046  0.00  0.00    +0.000 NA
ATOM     16  C   UNL     1     -41.072-163.802 310.638  0.00  0.00    +0.000 C 
ATOM     17  C   UNL     1     -40.072-163.921 309.466  0.00  0.00    +0.000 C 
ATOM     18  O   UNL     1     -40.388-163.042 308.355  0.00  0.00    +0.000 OA
ATOM     19  C   UNL     1     -40.586-161.707 308.853  0.00  0.00    +0.000 C 
ATOM     20  C   UNL     1     -41.770-161.738 309.826  0.00  0.00    +0.000 C 
BRANCH  15  21
ATOM     21  C   UNL     1     -40.599-161.506 311.816  0.00  0.00    +0.000 C 
BRANCH  21  22
ATOM     22  C   UNL     1     -41.533-160.314 312.146  0.00  0.00    +0.000 C 
ATOM     23  C   UNL     1     -40.749-159.025 312.397  0.00  0.00    +0.000 C 
BRANCH  22  25
ATOM     24  C   UNL     1     -43.758-160.165 313.342  0.00  0.00    +0.000 C 
ATOM     25  C   UNL     1     -42.349-160.710 313.370  0.00  0.00    +0.000 C 
ENDBRANCH  22  25
ENDBRANCH  21  22
ENDBRANCH  15  21
ENDBRANCH  14  19
ENDBRANCH   1  14
TORSDOF 7
ENDMDL
MODEL 4
REMARK VINA RESULT:    -9.122      1.595      7.795
REMARK INTER + INTRA:         -13.620
REMARK INTER:                 -12.808
REMARK INTRA:                  -0.812
REMARK UNBOUND:                -0.766
REMARK  Name = 
REMARK  9 active torsions:
REMARK  status: ('A' for Active; 'I' for Inactive)
REMARK    1  A    between atoms: C_1  and  C_2
REMARK    2  A    between atoms: C_2  and  C_3
REMARK    3  A    between atoms: C_3  and  C_4
REMARK    4  A    between atoms: C_3  and  C_5
REMARK    5  A    between atoms: C_5  and  N_6
REMARK    6  A    between atoms: C_10  and  C_11
REMARK    7  A    between atoms: C_11  and  O_12
REMARK    8  A    between atoms: O_12  and  C_13
REMARK    9  A    between atoms: C_13  and  C_15
REMARK                            x       y       z     vdW  Elec       q    Type
REMARK                         _______ _______ _______ _____ _____    ______ ____
ROOT
ATOM      1  O   UNL     1     -42.259-159.032 308.997  0.00  0.00    +0.000 OA
ENDROOT
BRANCH   1   2
ATOM      2  C   UNL     1     -41.363-158.774 308.002  0.00  0.00    +0.000 C 
ATOM      3  O   UNL     1     -40.214-159.220 307.901  0.00  0.00    +0.000 OA
BRANCH   2   4
ATOM      4  C   UNL     1     -41.921-157.939 306.926  0.00  0.00    +0.000 A 
ATOM      5  C   UNL     1     -41.110-157.418 305.920  0.00  0.00    +0.000 A 
ATOM      6  C   UNL     1     -41.653-156.528 305.000  0.00  0.00    +0.000 A 
ATOM      7  C   UNL     1     -42.936-156.042 305.243  0.00  0.00    +0.000 A 
ATOM      8  C   UNL     1     -43.508-155.028 304.463  0.00  0.00    +0.000 A 
ATOM      9  C   UNL     1     -44.757-154.519 304.813  0.00  0.00    +0.000 A 
ATOM     10  C   UNL     1     -45.428-155.017 305.927  0.00  0.00    +0.000 A 
ATOM     11  C   UNL     1     -44.862-156.035 306.687  0.00  0.00    +0.000 A 
ATOM     12  C   UNL     1     -43.640-156.567 306.354  0.00  0.00    +0.000 A 
ATOM     13  N   UNL     1     -43.183-157.538 307.139  0.00  0.00    +0.000 NA
ENDBRANCH   2   4
ENDBRANCH   1   2
BRANCH   1  14
ATOM     14  C   UNL     1     -41.977-158.570 310.361  0.00  0.00    +0.000 C 
BRANCH  14  19
ATOM     15  N   UNL     1     -40.862-161.747 312.025  0.00  0.00    +0.000 NA
ATOM     16  C   UNL     1     -41.334-161.488 313.384  0.00  0.00    +0.000 C 
ATOM     17  C   UNL     1     -42.547-160.541 313.520  0.00  0.00    +0.000 C 
ATOM     18  O   UNL     1     -42.430-159.345 312.705  0.00  0.00    +0.000 OA
ATOM     19  C   UNL     1     -42.103-159.725 311.356  0.00  0.00    +0.000 C 
ATOM     20  C   UNL     1     -40.753-160.450 311.386  0.00  0.00    +0.000 C 
BRANCH  15  21
ATOM     21  C   UNL     1     -41.506-162.614 311.021  0.00  0.00    +0.000 C 
BRANCH  21  22
ATOM     22  C   UNL     1     -40.611-162.504 309.760  0.00  0.00    +0.000 C 
ATOM     23  C   UNL     1     -41.438-162.451 308.474  0.00  0.00    +0.000 C 
BRANCH  22  25
ATOM     24  C   UNL     1     -39.317-164.183 308.378  0.00  0.00    +0.000 C 
ATOM     25  C   UNL     1     -39.678-163.708 309.767  0.00  0.00    +0.000 C 
ENDBRANCH  22  25
ENDBRANCH  21  22
ENDBRANCH  15  21
ENDBRANCH  14  19
ENDBRANCH   1  14
TORSDOF 7
ENDMDL
MODEL 5
REMARK VINA RESULT:    -9.087      3.657      7.685
REMARK INTER + INTRA:         -13.571
REMARK INTER:                 -13.097
REMARK INTRA:                  -0.474
REMARK UNBOUND:                -0.766
REMARK  Name = 
REMARK  9 active torsions:
REMARK  status: ('A' for Active; 'I' for Inactive)
REMARK    1  A    between atoms: C_1  and  C_2
REMARK    2  A    between atoms: C_2  and  C_3
REMARK    3  A    between atoms: C_3  and  C_4
REMARK    4  A    between atoms: C_3  and  C_5
REMARK    5  A    between atoms: C_5  and  N_6
REMARK    6  A    between atoms: C_10  and  C_11
REMARK    7  A    between atoms: C_11  and  O_12
REMARK    8  A    between atoms: O_12  and  C_13
REMARK    9  A    between atoms: C_13  and  C_15
REMARK                            x       y       z     vdW  Elec       q    Type
REMARK                         _______ _______ _______ _____ _____    ______ ____
ROOT
ATOM      1  O   UNL     1     -41.543-160.851 308.710  0.00  0.00    +0.000 OA
ENDROOT
BRANCH   1   2
ATOM      2  C   UNL     1     -41.362-159.774 309.526  0.00  0.00    +0.000 C 
ATOM      3  O   UNL     1     -41.337-158.584 309.194  0.00  0.00    +0.000 OA
BRANCH   2   4
ATOM      4  C   UNL     1     -41.281-160.138 310.950  0.00  0.00    +0.000 A 
ATOM      5  C   UNL     1     -40.288-160.995 311.422  0.00  0.00    +0.000 A 
ATOM      6  C   UNL     1     -40.326-161.416 312.747  0.00  0.00    +0.000 A 
ATOM      7  C   UNL     1     -41.466-161.121 313.492  0.00  0.00    +0.000 A 
ATOM      8  C   UNL     1     -41.666-161.633 314.780  0.00  0.00    +0.000 A 
ATOM      9  C   UNL     1     -42.868-161.380 315.438  0.00  0.00    +0.000 A 
ATOM     10  C   UNL     1     -43.858-160.622 314.817  0.00  0.00    +0.000 A 
ATOM     11  C   UNL     1     -43.646-160.102 313.544  0.00  0.00    +0.000 A 
ATOM     12  C   UNL     1     -42.464-160.323 312.882  0.00  0.00    +0.000 A 
ATOM     13  N   UNL     1     -42.354-159.784 311.671  0.00  0.00    +0.000 NA
ENDBRANCH   2   4
ENDBRANCH   1   2
BRANCH   1  14
ATOM     14  C   UNL     1     -40.413-161.359 307.922  0.00  0.00    +0.000 C 
BRANCH  14  19
ATOM     15  N   UNL     1     -38.612-164.650 307.763  0.00  0.00    +0.000 NA
ATOM     16  C   UNL     1     -39.238-165.325 308.898  0.00  0.00    +0.000 C 
ATOM     17  C   UNL     1     -40.668-164.869 309.264  0.00  0.00    +0.000 C 
ATOM     18  O   UNL     1     -40.817-163.425 309.288  0.00  0.00    +0.000 OA
ATOM     19  C   UNL     1     -40.298-162.877 308.063  0.00  0.00    +0.000 C 
ATOM     20  C   UNL     1     -38.809-163.230 307.983  0.00  0.00    +0.000 C 
BRANCH  15  21
ATOM     21  C   UNL     1     -38.919-164.861 306.336  0.00  0.00    +0.000 C 
BRANCH  21  22
ATOM     22  C   UNL     1     -37.885-165.909 305.851  0.00  0.00    +0.000 C 
ATOM     23  C   UNL     1     -38.413-167.338 305.985  0.00  0.00    +0.000 C 
BRANCH  22  25
ATOM     24  C   UNL     1     -35.731-166.927 306.700  0.00  0.00    +0.000 C 
ATOM     25  C   UNL     1     -36.623-165.708 306.679  0.00  0.00    +0.000 C 
ENDBRANCH  22  25
ENDBRANCH  21  22
ENDBRANCH  15  21
ENDBRANCH  14  19
ENDBRANCH   1  14
TORSDOF 7
ENDMDL
MODEL 6
REMARK VINA RESULT:    -9.080      2.120      3.833
REMARK INTER + INTRA:         -13.561
REMARK INTER:                 -12.905
REMARK INTRA:                  -0.657
REMARK UNBOUND:                -0.766
REMARK  Name = 
REMARK  9 active torsions:
REMARK  status: ('A' for Active; 'I' for Inactive)
REMARK    1  A    between atoms: C_1  and  C_2
REMARK    2  A    between atoms: C_2  and  C_3
REMARK    3  A    between atoms: C_3  and  C_4
REMARK    4  A    between atoms: C_3  and  C_5
REMARK    5  A    between atoms: C_5  and  N_6
REMARK    6  A    between atoms: C_10  and  C_11
REMARK    7  A    between atoms: C_11  and  O_12
REMARK    8  A    between atoms: O_12  and  C_13
REMARK    9  A    between atoms: C_13  and  C_15
REMARK                            x       y       z     vdW  Elec       q    Type
REMARK                         _______ _______ _______ _____ _____    ______ ____
ROOT
ATOM      1  O   UNL     1     -42.413-157.832 307.881  0.00  0.00    +0.000 OA
ENDROOT
BRANCH   1   2
ATOM      2  C   UNL     1     -41.338-158.540 307.434  0.00  0.00    +0.000 C 
ATOM      3  O   UNL     1     -40.677-158.326 306.412  0.00  0.00    +0.000 OA
BRANCH   2   4
ATOM      4  C   UNL     1     -40.925-159.606 308.362  0.00  0.00    +0.000 A 
ATOM      5  C   UNL     1     -40.592-160.878 307.901  0.00  0.00    +0.000 A 
ATOM      6  C   UNL     1     -40.335-161.890 308.820  0.00  0.00    +0.000 A 
ATOM      7  C   UNL     1     -40.616-161.639 310.161  0.00  0.00    +0.000 A 
ATOM      8  C   UNL     1     -40.540-162.641 311.138  0.00  0.00    +0.000 A 
ATOM      9  C   UNL     1     -40.924-162.351 312.445  0.00  0.00    +0.000 A 
ATOM     10  C   UNL     1     -41.378-161.076 312.775  0.00  0.00    +0.000 A 
ATOM     11  C   UNL     1     -41.435-160.082 311.804  0.00  0.00    +0.000 A 
ATOM     12  C   UNL     1     -41.046-160.336 310.512  0.00  0.00    +0.000 A 
ATOM     13  N   UNL     1     -41.135-159.322 309.656  0.00  0.00    +0.000 NA
ENDBRANCH   2   4
ENDBRANCH   1   2
BRANCH   1  14
ATOM     14  C   UNL     1     -42.447-156.376 307.697  0.00  0.00    +0.000 C 
BRANCH  14  19
ATOM     15  N   UNL     1     -45.854-156.299 306.120  0.00  0.00    +0.000 NA
ATOM     16  C   UNL     1     -45.818-154.962 305.530  0.00  0.00    +0.000 C 
ATOM     17  C   UNL     1     -44.422-154.411 305.162  0.00  0.00    +0.000 C 
ATOM     18  O   UNL     1     -43.436-154.614 306.209  0.00  0.00    +0.000 OA
ATOM     19  C   UNL     1     -43.458-155.994 306.615  0.00  0.00    +0.000 C 
ATOM     20  C   UNL     1     -44.854-156.299 307.170  0.00  0.00    +0.000 C 
BRANCH  15  21
ATOM     21  C   UNL     1     -45.663-157.578 305.411  0.00  0.00    +0.000 C 
BRANCH  21  22
ATOM     22  C   UNL     1     -47.050-158.269 305.445  0.00  0.00    +0.000 C 
ATOM     23  C   UNL     1     -47.153-159.292 306.578  0.00  0.00    +0.000 C 
BRANCH  22  25
ATOM     24  C   UNL     1     -47.531-160.409 304.186  0.00  0.00    +0.000 C 
ATOM     25  C   UNL     1     -47.255-158.927 304.087  0.00  0.00    +0.000 C 
ENDBRANCH  22  25
ENDBRANCH  21  22
ENDBRANCH  15  21
ENDBRANCH  14  19
ENDBRANCH   1  14
TORSDOF 7
ENDMDL
MODEL 7
REMARK VINA RESULT:    -8.992      1.684      2.563
REMARK INTER + INTRA:         -13.437
REMARK INTER:                 -13.063
REMARK INTRA:                  -0.374
REMARK UNBOUND:                -0.766
REMARK  Name = 
REMARK  9 active torsions:
REMARK  status: ('A' for Active; 'I' for Inactive)
REMARK    1  A    between atoms: C_1  and  C_2
REMARK    2  A    between atoms: C_2  and  C_3
REMARK    3  A    between atoms: C_3  and  C_4
REMARK    4  A    between atoms: C_3  and  C_5
REMARK    5  A    between atoms: C_5  and  N_6
REMARK    6  A    between atoms: C_10  and  C_11
REMARK    7  A    between atoms: C_11  and  O_12
REMARK    8  A    between atoms: O_12  and  C_13
REMARK    9  A    between atoms: C_13  and  C_15
REMARK                            x       y       z     vdW  Elec       q    Type
REMARK                         _______ _______ _______ _____ _____    ______ ____
ROOT
ATOM      1  O   UNL     1     -42.636-157.862 308.543  0.00  0.00    +0.000 OA
ENDROOT
BRANCH   1   2
ATOM      2  C   UNL     1     -42.337-158.392 309.763  0.00  0.00    +0.000 C 
ATOM      3  O   UNL     1     -42.360-157.812 310.854  0.00  0.00    +0.000 OA
BRANCH   2   4
ATOM      4  C   UNL     1     -42.048-159.835 309.708  0.00  0.00    +0.000 A 
ATOM      5  C   UNL     1     -42.408-160.685 310.752  0.00  0.00    +0.000 A 
ATOM      6  C   UNL     1     -42.001-162.015 310.719  0.00  0.00    +0.000 A 
ATOM      7  C   UNL     1     -41.082-162.390 309.741  0.00  0.00    +0.000 A 
ATOM      8  C   UNL     1     -40.494-163.661 309.722  0.00  0.00    +0.000 A 
ATOM      9  C   UNL     1     -39.512-163.946 308.775  0.00  0.00    +0.000 A 
ATOM     10  C   UNL     1     -39.122-162.973 307.858  0.00  0.00    +0.000 A 
ATOM     11  C   UNL     1     -39.722-161.718 307.872  0.00  0.00    +0.000 A 
ATOM     12  C   UNL     1     -40.704-161.418 308.783  0.00  0.00    +0.000 A 
ATOM     13  N   UNL     1     -41.219-160.193 308.717  0.00  0.00    +0.000 NA
ENDBRANCH   2   4
ENDBRANCH   1   2
BRANCH   1  14
ATOM     14  C   UNL     1     -43.014-156.447 308.443  0.00  0.00    +0.000 C 
BRANCH  14  19
ATOM     15  N   UNL     1     -45.274-155.955 305.485  0.00  0.00    +0.000 NA
ATOM     16  C   UNL     1     -44.625-154.796 304.873  0.00  0.00    +0.000 C 
ATOM     17  C   UNL     1     -43.112-154.637 305.142  0.00  0.00    +0.000 C 
ATOM     18  O   UNL     1     -42.756-154.838 306.535  0.00  0.00    +0.000 OA
ATOM     19  C   UNL     1     -43.328-156.076 306.993  0.00  0.00    +0.000 C 
ATOM     20  C   UNL     1     -44.851-155.964 306.872  0.00  0.00    +0.000 C 
BRANCH  15  21
ATOM     21  C   UNL     1     -45.165-157.358 305.044  0.00  0.00    +0.000 C 
BRANCH  21  22
ATOM     22  C   UNL     1     -46.551-157.983 305.342  0.00  0.00    +0.000 C 
ATOM     23  C   UNL     1     -46.549-158.783 306.646  0.00  0.00    +0.000 C 
BRANCH  22  25
ATOM     24  C   UNL     1     -47.593-160.151 304.559  0.00  0.00    +0.000 C 
ATOM     25  C   UNL     1     -46.910-158.865 304.154  0.00  0.00    +0.000 C 
ENDBRANCH  22  25
ENDBRANCH  21  22
ENDBRANCH  15  21
ENDBRANCH  14  19
ENDBRANCH   1  14
TORSDOF 7
ENDMDL
MODEL 8
REMARK VINA RESULT:    -8.932      1.863      8.311
REMARK INTER + INTRA:         -13.352
REMARK INTER:                 -12.805
REMARK INTRA:                  -0.547
REMARK UNBOUND:                -0.766
REMARK  Name = 
REMARK  9 active torsions:
REMARK  status: ('A' for Active; 'I' for Inactive)
REMARK    1  A    between atoms: C_1  and  C_2
REMARK    2  A    between atoms: C_2  and  C_3
REMARK    3  A    between atoms: C_3  and  C_4
REMARK    4  A    between atoms: C_3  and  C_5
REMARK    5  A    between atoms: C_5  and  N_6
REMARK    6  A    between atoms: C_10  and  C_11
REMARK    7  A    between atoms: C_11  and  O_12
REMARK    8  A    between atoms: O_12  and  C_13
REMARK    9  A    between atoms: C_13  and  C_15
REMARK                            x       y       z     vdW  Elec       q    Type
REMARK                         _______ _______ _______ _____ _____    ______ ____
ROOT
ATOM      1  O   UNL     1     -40.997-159.301 308.544  0.00  0.00    +0.000 OA
ENDROOT
BRANCH   1   2
ATOM      2  C   UNL     1     -42.073-158.479 308.705  0.00  0.00    +0.000 C 
ATOM      3  O   UNL     1     -42.654-158.212 309.763  0.00  0.00    +0.000 OA
BRANCH   2   4
ATOM      4  C   UNL     1     -42.477-157.808 307.459  0.00  0.00    +0.000 A 
ATOM      5  C   UNL     1     -41.579-157.630 306.409  0.00  0.00    +0.000 A 
ATOM      6  C   UNL     1     -41.962-156.876 305.304  0.00  0.00    +0.000 A 
ATOM      7  C   UNL     1     -43.159-156.167 305.384  0.00  0.00    +0.000 A 
ATOM      8  C   UNL     1     -43.554-155.261 304.391  0.00  0.00    +0.000 A 
ATOM      9  C   UNL     1     -44.715-154.512 304.572  0.00  0.00    +0.000 A 
ATOM     10  C   UNL     1     -45.473-154.666 305.730  0.00  0.00    +0.000 A 
ATOM     11  C   UNL     1     -45.084-155.580 306.704  0.00  0.00    +0.000 A 
ATOM     12  C   UNL     1     -43.954-156.343 306.542  0.00  0.00    +0.000 A 
ATOM     13  N   UNL     1     -43.665-157.190 307.527  0.00  0.00    +0.000 NA
ENDBRANCH   2   4
ENDBRANCH   1   2
BRANCH   1  14
ATOM     14  C   UNL     1     -40.594-160.188 309.641  0.00  0.00    +0.000 C 
BRANCH  14  19
ATOM     15  N   UNL     1     -39.850-163.847 309.240  0.00  0.00    +0.000 NA
ATOM     16  C   UNL     1     -41.124-164.404 309.690  0.00  0.00    +0.000 C 
ATOM     17  C   UNL     1     -42.369-163.507 309.507  0.00  0.00    +0.000 C 
ATOM     18  O   UNL     1     -42.149-162.136 309.931  0.00  0.00    +0.000 OA
ATOM     19  C   UNL     1     -40.947-161.640 309.316  0.00  0.00    +0.000 C 
ATOM     20  C   UNL     1     -39.780-162.510 309.798  0.00  0.00    +0.000 C 
BRANCH  15  21
ATOM     21  C   UNL     1     -39.398-163.702 307.844  0.00  0.00    +0.000 C 
BRANCH  21  22
ATOM     22  C   UNL     1     -38.382-164.852 307.628  0.00  0.00    +0.000 C 
ATOM     23  C   UNL     1     -37.133-164.380 306.880  0.00  0.00    +0.000 C 
BRANCH  22  25
ATOM     24  C   UNL     1     -38.179-166.764 305.984  0.00  0.00    +0.000 C 
ATOM     25  C   UNL     1     -39.104-165.950 306.858  0.00  0.00    +0.000 C 
ENDBRANCH  22  25
ENDBRANCH  21  22
ENDBRANCH  15  21
ENDBRANCH  14  19
ENDBRANCH   1  14
TORSDOF 7
ENDMDL
MODEL 9
REMARK VINA RESULT:    -8.766      1.943      2.734
REMARK INTER + INTRA:         -13.119
REMARK INTER:                 -12.494
REMARK INTRA:                  -0.625
REMARK UNBOUND:                -0.766
REMARK  Name = 
REMARK  9 active torsions:
REMARK  status: ('A' for Active; 'I' for Inactive)
REMARK    1  A    between atoms: C_1  and  C_2
REMARK    2  A    between atoms: C_2  and  C_3
REMARK    3  A    between atoms: C_3  and  C_4
REMARK    4  A    between atoms: C_3  and  C_5
REMARK    5  A    between atoms: C_5  and  N_6
REMARK    6  A    between atoms: C_10  and  C_11
REMARK    7  A    between atoms: C_11  and  O_12
REMARK    8  A    between atoms: O_12  and  C_13
REMARK    9  A    between atoms: C_13  and  C_15
REMARK                            x       y       z     vdW  Elec       q    Type
REMARK                         _______ _______ _______ _____ _____    ______ ____
ROOT
ATOM      1  O   UNL     1     -42.192-159.531 308.740  0.00  0.00    +0.000 OA
ENDROOT
BRANCH   1   2
ATOM      2  C   UNL     1     -40.923-159.791 308.315  0.00  0.00    +0.000 C 
ATOM      3  O   UNL     1     -40.051-158.966 308.024  0.00  0.00    +0.000 OA
BRANCH   2   4
ATOM      4  C   UNL     1     -40.602-161.228 308.308  0.00  0.00    +0.000 A 
ATOM      5  C   UNL     1     -41.192-162.106 309.215  0.00  0.00    +0.000 A 
ATOM      6  C   UNL     1     -40.764-163.428 309.260  0.00  0.00    +0.000 A 
ATOM      7  C   UNL     1     -39.625-163.769 308.533  0.00  0.00    +0.000 A 
ATOM      8  C   UNL     1     -39.027-165.032 308.636  0.00  0.00    +0.000 A 
ATOM      9  C   UNL     1     -37.837-165.282 307.957  0.00  0.00    +0.000 A 
ATOM     10  C   UNL     1     -37.252-164.284 307.181  0.00  0.00    +0.000 A 
ATOM     11  C   UNL     1     -37.860-163.038 307.069  0.00  0.00    +0.000 A 
ATOM     12  C   UNL     1     -39.042-162.771 307.715  0.00  0.00    +0.000 A 
ATOM     13  N   UNL     1     -39.548-161.553 307.546  0.00  0.00    +0.000 NA
ENDBRANCH   2   4
ENDBRANCH   1   2
BRANCH   1  14
ATOM     14  C   UNL     1     -42.453-158.328 309.540  0.00  0.00    +0.000 C 
BRANCH  14  19
ATOM     15  N   UNL     1     -44.678-156.591 307.063  0.00  0.00    +0.000 NA
ATOM     16  C   UNL     1     -44.551-155.217 307.544  0.00  0.00    +0.000 C 
ATOM     17  C   UNL     1     -43.239-154.866 308.280  0.00  0.00    +0.000 C 
ATOM     18  O   UNL     1     -42.850-155.866 309.259  0.00  0.00    +0.000 OA
ATOM     19  C   UNL     1     -42.872-157.165 308.640  0.00  0.00    +0.000 C 
ATOM     20  C   UNL     1     -44.307-157.441 308.178  0.00  0.00    +0.000 C 
BRANCH  15  21
ATOM     21  C   UNL     1     -44.000-157.180 305.893  0.00  0.00    +0.000 C 
BRANCH  21  22
ATOM     22  C   UNL     1     -43.330-155.983 305.172  0.00  0.00    +0.000 C 
ATOM     23  C   UNL     1     -44.082-155.588 303.899  0.00  0.00    +0.000 C 
BRANCH  22  25
ATOM     24  C   UNL     1     -41.602-157.830 305.226  0.00  0.00    +0.000 C 
ATOM     25  C   UNL     1     -41.897-156.394 304.861  0.00  0.00    +0.000 C 
ENDBRANCH  22  25
ENDBRANCH  21  22
ENDBRANCH  15  21
ENDBRANCH  14  19
ENDBRANCH   1  14
TORSDOF 7
ENDMDL
MODEL 10
REMARK VINA RESULT:    -8.733      2.222      3.761
REMARK INTER + INTRA:         -13.073
REMARK INTER:                 -13.090
REMARK INTRA:                   0.018
REMARK UNBOUND:                -0.766
REMARK  Name = 
REMARK  9 active torsions:
REMARK  status: ('A' for Active; 'I' for Inactive)
REMARK    1  A    between atoms: C_1  and  C_2
REMARK    2  A    between atoms: C_2  and  C_3
REMARK    3  A    between atoms: C_3  and  C_4
REMARK    4  A    between atoms: C_3  and  C_5
REMARK    5  A    between atoms: C_5  and  N_6
REMARK    6  A    between atoms: C_10  and  C_11
REMARK    7  A    between atoms: C_11  and  O_12
REMARK    8  A    between atoms: O_12  and  C_13
REMARK    9  A    between atoms: C_13  and  C_15
REMARK                            x       y       z     vdW  Elec       q    Type
REMARK                         _______ _______ _______ _____ _____    ______ ____
ROOT
ATOM      1  O   UNL     1     -40.633-160.025 308.134  0.00  0.00    +0.000 OA
ENDROOT
BRANCH   1   2
ATOM      2  C   UNL     1     -40.977-161.207 308.718  0.00  0.00    +0.000 C 
ATOM      3  O   UNL     1     -41.196-162.283 308.150  0.00  0.00    +0.000 OA
BRANCH   2   4
ATOM      4  C   UNL     1     -40.986-161.142 310.189  0.00  0.00    +0.000 A 
ATOM      5  C   UNL     1     -40.068-161.862 310.950  0.00  0.00    +0.000 A 
ATOM      6  C   UNL     1     -40.194-161.875 312.336  0.00  0.00    +0.000 A 
ATOM      7  C   UNL     1     -41.351-161.329 312.889  0.00  0.00    +0.000 A 
ATOM      8  C   UNL     1     -41.643-161.434 314.256  0.00  0.00    +0.000 A 
ATOM      9  C   UNL     1     -42.858-160.951 314.734  0.00  0.00    +0.000 A 
ATOM     10  C   UNL     1     -43.772-160.369 313.859  0.00  0.00    +0.000 A 
ATOM     11  C   UNL     1     -43.469-160.254 312.506  0.00  0.00    +0.000 A 
ATOM     12  C   UNL     1     -42.271-160.706 312.012  0.00  0.00    +0.000 A 
ATOM     13  N   UNL     1     -42.071-160.549 310.707  0.00  0.00    +0.000 NA
ENDBRANCH   2   4
ENDBRANCH   1   2
BRANCH   1  14
ATOM     14  C   UNL     1     -41.520-158.864 308.274  0.00  0.00    +0.000 C 
BRANCH  14  19
ATOM     15  N   UNL     1     -43.195-156.536 305.850  0.00  0.00    +0.000 NA
ATOM     16  C   UNL     1     -42.014-155.977 305.195  0.00  0.00    +0.000 C 
ATOM     17  C   UNL     1     -40.754-156.871 305.171  0.00  0.00    +0.000 C 
ATOM     18  O   UNL     1     -40.472-157.491 306.454  0.00  0.00    +0.000 OA
ATOM     19  C   UNL     1     -41.665-158.133 306.939  0.00  0.00    +0.000 C 
ATOM     20  C   UNL     1     -42.737-157.054 307.125  0.00  0.00    +0.000 C 
BRANCH  15  21
ATOM     21  C   UNL     1     -44.087-157.580 305.312  0.00  0.00    +0.000 C 
BRANCH  21  22
ATOM     22  C   UNL     1     -45.488-156.920 305.247  0.00  0.00    +0.000 C 
ATOM     23  C   UNL     1     -45.554-155.636 306.077  0.00  0.00    +0.000 C 
BRANCH  22  25
ATOM     24  C   UNL     1     -47.326-158.546 304.634  0.00  0.00    +0.000 C 
ATOM     25  C   UNL     1     -46.492-157.950 305.745  0.00  0.00    +0.000 C 
ENDBRANCH  22  25
ENDBRANCH  21  22
ENDBRANCH  15  21
ENDBRANCH  14  19
ENDBRANCH   1  14
TORSDOF 7
ENDMDL
