MODEL 1
REMARK VINA RESULT:     0.000      0.000      0.000
REMARK INTER + INTRA:          -2.003
REMARK INTER:                   0.000
REMARK INTRA:                  -2.003
REMARK UNBOUND:                -2.003
REMARK  Name = 
REMARK  7 active torsions:
REMARK  status: ('A' for Active; 'I' for Inactive)
REMARK    1  A    between atoms: C_1  and  C_2
REMARK    2  A    between atoms: C_2  and  C_3
REMARK    3  A    between atoms: N_5  and  C_6
REMARK    4  A    between atoms: N_5  and  C_20
REMARK    5  A    between atoms: C_6  and  C_7
REMARK    6  A    between atoms: N_11  and  C_12
REMARK    7  A    between atoms: C_12  and  C_13
REMARK                            x       y       z     vdW  Elec       q    Type
REMARK                         _______ _______ _______ _____ _____    ______ ____
ROOT
ATOM      1  C   UNL     1     -45.952-300.687  60.285  0.00  0.00    +0.000 A 
ATOM      2  N   UNL     1     -46.452-300.241  61.434  0.00  0.00    +0.000 NA
ATOM      3  C   UNL     1     -45.801-300.890  62.435  0.00  0.00    +0.000 A 
ATOM      4  C   UNL     1     -44.959-301.828  61.911  0.00  0.00    +0.000 A 
ATOM      5  N   UNL     1     -45.010-301.690  60.538  0.00  0.00    +0.000 N 
ENDROOT
BRANCH   1   6
ATOM      6  C   UNL     1     -46.404-300.133  58.939  0.00  0.00    +0.000 C 
BRANCH   6   9
ATOM      7  C   UNL     1     -48.456-298.549  59.116  0.00  0.00    +0.000 C 
ATOM      8  O   UNL     1     -49.644-298.300  58.988  0.00  0.00    +0.000 OA
ATOM      9  N   UNL     1     -47.869-299.817  58.934  0.00  0.00    +0.000 N 
BRANCH   9  10
ATOM     10  C   UNL     1     -48.759-300.880  58.455  0.00  0.00    +0.000 C 
ATOM     11  C   UNL     1     -48.210-301.718  57.296  0.00  0.00    +0.000 C 
ATOM     12  C   UNL     1     -48.988-303.018  57.363  0.00  0.00    +0.000 C 
ATOM     13  C   UNL     1     -49.445-303.175  58.813  0.00  0.00    +0.000 C 
ATOM     14  C   UNL     1     -49.086-301.892  59.549  0.00  0.00    +0.000 C 
ENDBRANCH   9  10
BRANCH   7  16
ATOM     15  C   UNL     1     -48.074-297.019  60.879  0.00  0.00    +0.000 C 
ATOM     16  C   UNL     1     -47.602-297.404  59.545  0.00  0.00    +0.000 C 
ENDBRANCH   7  16
ENDBRANCH   6   9
ENDBRANCH   1   6
BRANCH   5  17
ATOM     17  C   UNL     1     -44.242-302.570  59.623  0.00  0.00    +0.000 C 
BRANCH  17  18
ATOM     18  C   UNL     1     -45.099-303.617  58.885  0.00  0.00    +0.000 A 
ATOM     19  C   UNL     1     -45.895-304.510  59.594  0.00  0.00    +0.000 A 
ATOM     20  C   UNL     1     -46.625-305.523  58.956  0.00  0.00    +0.000 A 
ATOM     21  C   UNL     1     -46.516-305.739  57.587  0.00  0.00    +0.000 A 
ATOM     22  C   UNL     1     -45.759-304.860  56.852  0.00  0.00    +0.000 A 
ATOM     23 CL   UNL     1     -45.493-305.119  55.168  0.00  0.00    +0.000 Cl
ATOM     24  C   UNL     1     -45.201-303.745  57.487  0.00  0.00    +0.000 A 
ENDBRANCH  17  18
ENDBRANCH   5  17
TORSDOF 6
ENDMDL
MODEL 2
REMARK VINA RESULT:     0.000      5.955      8.350
REMARK INTER + INTRA:          -2.003
REMARK INTER:                   0.000
REMARK INTRA:                  -2.003
REMARK UNBOUND:                -2.003
REMARK  Name = 
REMARK  7 active torsions:
REMARK  status: ('A' for Active; 'I' for Inactive)
REMARK    1  A    between atoms: C_1  and  C_2
REMARK    2  A    between atoms: C_2  and  C_3
REMARK    3  A    between atoms: N_5  and  C_6
REMARK    4  A    between atoms: N_5  and  C_20
REMARK    5  A    between atoms: C_6  and  C_7
REMARK    6  A    between atoms: N_11  and  C_12
REMARK    7  A    between atoms: C_12  and  C_13
REMARK                            x       y       z     vdW  Elec       q    Type
REMARK                         _______ _______ _______ _____ _____    ______ ____
ROOT
ATOM      1  C   UNL     1     -42.583-297.732  63.138  0.00  0.00    +0.000 A 
ATOM      2  N   UNL     1     -42.211-297.576  61.870  0.00  0.00    +0.000 NA
ATOM      3  C   UNL     1     -42.753-296.409  61.433  0.00  0.00    +0.000 A 
ATOM      4  C   UNL     1     -43.559-295.880  62.399  0.00  0.00    +0.000 A 
ATOM      5  N   UNL     1     -43.435-296.687  63.512  0.00  0.00    +0.000 N 
ENDROOT
BRANCH   1   6
ATOM      6  C   UNL     1     -42.106-298.909  63.979  0.00  0.00    +0.000 C 
BRANCH   6   9
ATOM      7  C   UNL     1     -40.842-300.714  62.602  0.00  0.00    +0.000 C 
ATOM      8  O   UNL     1     -40.771-301.801  62.049  0.00  0.00    +0.000 OA
ATOM      9  N   UNL     1     -42.010-300.166  63.168  0.00  0.00    +0.000 N 
BRANCH   9  10
ATOM     10  C   UNL     1     -43.195-301.031  63.170  0.00  0.00    +0.000 C 
ATOM     11  C   UNL     1     -43.946-301.105  64.504  0.00  0.00    +0.000 C 
ATOM     12  C   UNL     1     -45.347-301.548  64.128  0.00  0.00    +0.000 C 
ATOM     13  C   UNL     1     -45.565-301.113  62.679  0.00  0.00    +0.000 C 
ATOM     14  C   UNL     1     -44.240-300.576  62.157  0.00  0.00    +0.000 C 
ENDBRANCH   9  10
BRANCH   7  16
ATOM     15  C   UNL     1     -39.267-299.625  61.213  0.00  0.00    +0.000 C 
ATOM     16  C   UNL     1     -39.581-299.917  62.615  0.00  0.00    +0.000 C 
ENDBRANCH   7  16
ENDBRANCH   6   9
ENDBRANCH   1   6
BRANCH   5  17
ATOM     17  C   UNL     1     -44.195-296.440  64.761  0.00  0.00    +0.000 C 
BRANCH  17  18
ATOM     18  C   UNL     1     -45.361-297.420  64.998  0.00  0.00    +0.000 A 
ATOM     19  C   UNL     1     -46.359-297.580  64.043  0.00  0.00    +0.000 A 
ATOM     20  C   UNL     1     -47.472-298.405  64.261  0.00  0.00    +0.000 A 
ATOM     21  C   UNL     1     -47.674-299.034  65.484  0.00  0.00    +0.000 A 
ATOM     22  C   UNL     1     -46.695-298.919  66.442  0.00  0.00    +0.000 A 
ATOM     23 CL   UNL     1     -46.919-299.585  68.016  0.00  0.00    +0.000 Cl
ATOM     24  C   UNL     1     -45.508-298.252  66.124  0.00  0.00    +0.000 A 
ENDBRANCH  17  18
ENDBRANCH   5  17
TORSDOF 6
ENDMDL
MODEL 3
REMARK VINA RESULT:     0.000      5.132      8.056
REMARK INTER + INTRA:          -2.003
REMARK INTER:                   0.000
REMARK INTRA:                  -2.003
REMARK UNBOUND:                -2.003
REMARK  Name = 
REMARK  7 active torsions:
REMARK  status: ('A' for Active; 'I' for Inactive)
REMARK    1  A    between atoms: C_1  and  C_2
REMARK    2  A    between atoms: C_2  and  C_3
REMARK    3  A    between atoms: N_5  and  C_6
REMARK    4  A    between atoms: N_5  and  C_20
REMARK    5  A    between atoms: C_6  and  C_7
REMARK    6  A    between atoms: N_11  and  C_12
REMARK    7  A    between atoms: C_12  and  C_13
REMARK                            x       y       z     vdW  Elec       q    Type
REMARK                         _______ _______ _______ _____ _____    ______ ____
ROOT
ATOM      1  C   UNL     1     -47.827-299.782  63.249  0.00  0.00    +0.000 A 
ATOM      2  N   UNL     1     -48.048-300.781  62.399  0.00  0.00    +0.000 NA
ATOM      3  C   UNL     1     -47.013-300.798  61.519  0.00  0.00    +0.000 A 
ATOM      4  C   UNL     1     -46.189-299.734  61.751  0.00  0.00    +0.000 A 
ATOM      5  N   UNL     1     -46.668-299.094  62.877  0.00  0.00    +0.000 N 
ENDROOT
BRANCH   1   6
ATOM      6  C   UNL     1     -48.758-299.500  64.422  0.00  0.00    +0.000 C 
BRANCH   6   9
ATOM      7  C   UNL     1     -50.948-300.897  64.357  0.00  0.00    +0.000 C 
ATOM      8  O   UNL     1     -52.146-301.022  64.159  0.00  0.00    +0.000 OA
ATOM      9  N   UNL     1     -50.192-299.745  64.062  0.00  0.00    +0.000 N 
BRANCH   9  10
ATOM     10  C   UNL     1     -50.945-298.584  63.574  0.00  0.00    +0.000 C 
ATOM     11  C   UNL     1     -50.602-297.253  64.251  0.00  0.00    +0.000 C 
ATOM     12  C   UNL     1     -51.040-296.196  63.255  0.00  0.00    +0.000 C 
ATOM     13  C   UNL     1     -51.006-296.857  61.878  0.00  0.00    +0.000 C 
ATOM     14  C   UNL     1     -50.719-298.337  62.086  0.00  0.00    +0.000 C 
ENDBRANCH   9  10
BRANCH   7  16
ATOM     15  C   UNL     1     -50.388-303.148  63.897  0.00  0.00    +0.000 C 
ATOM     16  C   UNL     1     -50.261-302.098  64.913  0.00  0.00    +0.000 C 
ENDBRANCH   7  16
ENDBRANCH   6   9
ENDBRANCH   1   6
BRANCH   5  17
ATOM     17  C   UNL     1     -46.039-297.864  63.418  0.00  0.00    +0.000 C 
BRANCH  17  18
ATOM     18  C   UNL     1     -46.840-296.574  63.153  0.00  0.00    +0.000 A 
ATOM     19  C   UNL     1     -47.191-296.210  61.857  0.00  0.00    +0.000 A 
ATOM     20  C   UNL     1     -47.851-295.006  61.576  0.00  0.00    +0.000 A 
ATOM     21  C   UNL     1     -48.108-294.074  62.575  0.00  0.00    +0.000 A 
ATOM     22  C   UNL     1     -47.798-294.411  63.870  0.00  0.00    +0.000 A 
ATOM     23 CL   UNL     1     -47.993-293.271  65.149  0.00  0.00    +0.000 Cl
ATOM     24  C   UNL     1     -47.321-295.697  64.143  0.00  0.00    +0.000 A 
ENDBRANCH  17  18
ENDBRANCH   5  17
TORSDOF 6
ENDMDL
MODEL 4
REMARK VINA RESULT:     0.001      6.728      8.785
REMARK INTER + INTRA:          -2.003
REMARK INTER:                   0.000
REMARK INTRA:                  -2.003
REMARK UNBOUND:                -2.003
REMARK  Name = 
REMARK  7 active torsions:
REMARK  status: ('A' for Active; 'I' for Inactive)
REMARK    1  A    between atoms: C_1  and  C_2
REMARK    2  A    between atoms: C_2  and  C_3
REMARK    3  A    between atoms: N_5  and  C_6
REMARK    4  A    between atoms: N_5  and  C_20
REMARK    5  A    between atoms: C_6  and  C_7
REMARK    6  A    between atoms: N_11  and  C_12
REMARK    7  A    between atoms: C_12  and  C_13
REMARK                            x       y       z     vdW  Elec       q    Type
REMARK                         _______ _______ _______ _____ _____    ______ ____
ROOT
ATOM      1  C   UNL     1     -44.921-304.300  64.795  0.00  0.00    +0.000 A 
ATOM      2  N   UNL     1     -43.836-304.989  65.137  0.00  0.00    +0.000 NA
ATOM      3  C   UNL     1     -44.257-306.158  65.687  0.00  0.00    +0.000 A 
ATOM      4  C   UNL     1     -45.618-306.159  65.790  0.00  0.00    +0.000 A 
ATOM      5  N   UNL     1     -46.066-304.999  65.190  0.00  0.00    +0.000 N 
ENDROOT
BRANCH   1   6
ATOM      6  C   UNL     1     -44.833-302.954  64.087  0.00  0.00    +0.000 C 
BRANCH   6   9
ATOM      7  C   UNL     1     -42.415-302.011  63.967  0.00  0.00    +0.000 C 
ATOM      8  O   UNL     1     -41.531-301.249  64.327  0.00  0.00    +0.000 OA
ATOM      9  N   UNL     1     -43.675-302.142  64.583  0.00  0.00    +0.000 N 
BRANCH   9  10
ATOM     10  C   UNL     1     -43.960-301.208  65.678  0.00  0.00    +0.000 C 
ATOM     11  C   UNL     1     -45.330-300.525  65.613  0.00  0.00    +0.000 C 
ATOM     12  C   UNL     1     -45.611-300.098  67.040  0.00  0.00    +0.000 C 
ATOM     13  C   UNL     1     -44.809-301.037  67.940  0.00  0.00    +0.000 C 
ATOM     14  C   UNL     1     -43.930-301.894  67.040  0.00  0.00    +0.000 C 
ENDBRANCH   9  10
BRANCH   7  16
ATOM     15  C   UNL     1     -40.972-303.744  63.253  0.00  0.00    +0.000 C 
ATOM     16  C   UNL     1     -42.074-302.886  62.808  0.00  0.00    +0.000 C 
ENDBRANCH   7  16
ENDBRANCH   6   9
ENDBRANCH   1   6
BRANCH   5  17
ATOM     17  C   UNL     1     -47.504-304.638  65.138  0.00  0.00    +0.000 C 
BRANCH  17  18
ATOM     18  C   UNL     1     -47.910-303.510  66.107  0.00  0.00    +0.000 A 
ATOM     19  C   UNL     1     -47.656-303.619  67.470  0.00  0.00    +0.000 A 
ATOM     20  C   UNL     1     -48.081-302.646  68.386  0.00  0.00    +0.000 A 
ATOM     21  C   UNL     1     -48.856-301.565  67.982  0.00  0.00    +0.000 A 
ATOM     22  C   UNL     1     -49.104-301.411  66.639  0.00  0.00    +0.000 A 
ATOM     23 CL   UNL     1     -50.139-300.155  66.071  0.00  0.00    +0.000 Cl
ATOM     24  C   UNL     1     -48.502-302.289  65.731  0.00  0.00    +0.000 A 
ENDBRANCH  17  18
ENDBRANCH   5  17
TORSDOF 6
ENDMDL
MODEL 5
REMARK VINA RESULT:     0.001      4.171      7.239
REMARK INTER + INTRA:          -2.002
REMARK INTER:                   0.000
REMARK INTRA:                  -2.002
REMARK UNBOUND:                -2.003
REMARK  Name = 
REMARK  7 active torsions:
REMARK  status: ('A' for Active; 'I' for Inactive)
REMARK    1  A    between atoms: C_1  and  C_2
REMARK    2  A    between atoms: C_2  and  C_3
REMARK    3  A    between atoms: N_5  and  C_6
REMARK    4  A    between atoms: N_5  and  C_20
REMARK    5  A    between atoms: C_6  and  C_7
REMARK    6  A    between atoms: N_11  and  C_12
REMARK    7  A    between atoms: C_12  and  C_13
REMARK                            x       y       z     vdW  Elec       q    Type
REMARK                         _______ _______ _______ _____ _____    ______ ____
ROOT
ATOM      1  C   UNL     1     -45.860-299.220  59.358  0.00  0.00    +0.000 A 
ATOM      2  N   UNL     1     -47.164-299.383  59.155  0.00  0.00    +0.000 NA
ATOM      3  C   UNL     1     -47.477-298.736  58.002  0.00  0.00    +0.000 A 
ATOM      4  C   UNL     1     -46.382-298.071  57.531  0.00  0.00    +0.000 A 
ATOM      5  N   UNL     1     -45.327-298.398  58.360  0.00  0.00    +0.000 N 
ENDROOT
BRANCH   1   6
ATOM      6  C   UNL     1     -45.139-299.866  60.534  0.00  0.00    +0.000 C 
BRANCH   6   9
ATOM      7  C   UNL     1     -46.751-300.968  62.249  0.00  0.00    +0.000 C 
ATOM      8  O   UNL     1     -47.341-300.993  63.318  0.00  0.00    +0.000 OA
ATOM      9  N   UNL     1     -45.994-299.882  61.766  0.00  0.00    +0.000 N 
BRANCH   9  10
ATOM     10  C   UNL     1     -45.834-298.746  62.680  0.00  0.00    +0.000 C 
ATOM     11  C   UNL     1     -44.404-298.215  62.818  0.00  0.00    +0.000 C 
ATOM     12  C   UNL     1     -44.572-296.791  63.310  0.00  0.00    +0.000 C 
ATOM     13  C   UNL     1     -45.955-296.333  62.850  0.00  0.00    +0.000 C 
ATOM     14  C   UNL     1     -46.659-297.539  62.245  0.00  0.00    +0.000 C 
ENDBRANCH   9  10
BRANCH   7  16
ATOM     15  C   UNL     1     -48.333-302.265  61.062  0.00  0.00    +0.000 C 
ATOM     16  C   UNL     1     -46.908-302.184  61.401  0.00  0.00    +0.000 C 
ENDBRANCH   7  16
ENDBRANCH   6   9
ENDBRANCH   1   6
BRANCH   5  17
ATOM     17  C   UNL     1     -43.968-297.832  58.175  0.00  0.00    +0.000 C 
BRANCH  17  18
ATOM     18  C   UNL     1     -43.583-296.756  59.209  0.00  0.00    +0.000 A 
ATOM     19  C   UNL     1     -44.377-295.628  59.388  0.00  0.00    +0.000 A 
ATOM     20  C   UNL     1     -44.015-294.595  60.264  0.00  0.00    +0.000 A 
ATOM     21  C   UNL     1     -42.795-294.610  60.931  0.00  0.00    +0.000 A 
ATOM     22  C   UNL     1     -41.997-295.721  60.798  0.00  0.00    +0.000 A 
ATOM     23 CL   UNL     1     -40.429-295.771  61.511  0.00  0.00    +0.000 Cl
ATOM     24  C   UNL     1     -42.474-296.818  60.073  0.00  0.00    +0.000 A 
ENDBRANCH  17  18
ENDBRANCH   5  17
TORSDOF 6
ENDMDL
MODEL 6
REMARK VINA RESULT:     0.001      8.120      9.847
REMARK INTER + INTRA:          -2.002
REMARK INTER:                   0.000
REMARK INTRA:                  -2.002
REMARK UNBOUND:                -2.003
REMARK  Name = 
REMARK  7 active torsions:
REMARK  status: ('A' for Active; 'I' for Inactive)
REMARK    1  A    between atoms: C_1  and  C_2
REMARK    2  A    between atoms: C_2  and  C_3
REMARK    3  A    between atoms: N_5  and  C_6
REMARK    4  A    between atoms: N_5  and  C_20
REMARK    5  A    between atoms: C_6  and  C_7
REMARK    6  A    between atoms: N_11  and  C_12
REMARK    7  A    between atoms: C_12  and  C_13
REMARK                            x       y       z     vdW  Elec       q    Type
REMARK                         _______ _______ _______ _____ _____    ______ ____
ROOT
ATOM      1  C   UNL     1     -40.749-298.712  64.526  0.00  0.00    +0.000 A 
ATOM      2  N   UNL     1     -41.659-299.595  64.926  0.00  0.00    +0.000 NA
ATOM      3  C   UNL     1     -41.623-300.634  64.050  0.00  0.00    +0.000 A 
ATOM      4  C   UNL     1     -40.758-300.354  63.032  0.00  0.00    +0.000 A 
ATOM      5  N   UNL     1     -40.159-299.149  63.336  0.00  0.00    +0.000 N 
ENDROOT
BRANCH   1   6
ATOM      6  C   UNL     1     -40.463-297.437  65.310  0.00  0.00    +0.000 C 
BRANCH   6   9
ATOM      7  C   UNL     1     -42.157-297.014  67.235  0.00  0.00    +0.000 C 
ATOM      8  O   UNL     1     -43.115-296.436  67.727  0.00  0.00    +0.000 OA
ATOM      9  N   UNL     1     -41.713-296.862  65.906  0.00  0.00    +0.000 N 
BRANCH   9  10
ATOM     10  C   UNL     1     -42.409-295.852  65.102  0.00  0.00    +0.000 C 
ATOM     11  C   UNL     1     -41.498-294.905  64.314  0.00  0.00    +0.000 C 
ATOM     12  C   UNL     1     -42.374-294.379  63.193  0.00  0.00    +0.000 C 
ATOM     13  C   UNL     1     -43.458-295.431  62.961  0.00  0.00    +0.000 C 
ATOM     14  C   UNL     1     -43.321-296.481  64.054  0.00  0.00    +0.000 C 
ENDBRANCH   9  10
BRANCH   7  16
ATOM     15  C   UNL     1     -42.439-299.026  68.446  0.00  0.00    +0.000 C 
ATOM     16  C   UNL     1     -41.460-297.980  68.132  0.00  0.00    +0.000 C 
ENDBRANCH   7  16
ENDBRANCH   6   9
ENDBRANCH   1   6
BRANCH   5  17
ATOM     17  C   UNL     1     -39.173-298.503  62.434  0.00  0.00    +0.000 C 
BRANCH  17  18
ATOM     18  C   UNL     1     -39.720-297.283  61.667  0.00  0.00    +0.000 A 
ATOM     19  C   UNL     1     -40.855-297.395  60.872  0.00  0.00    +0.000 A 
ATOM     20  C   UNL     1     -41.332-296.325  60.102  0.00  0.00    +0.000 A 
ATOM     21  C   UNL     1     -40.638-295.123  60.029  0.00  0.00    +0.000 A 
ATOM     22  C   UNL     1     -39.526-294.968  60.821  0.00  0.00    +0.000 A 
ATOM     23 CL   UNL     1     -38.555-293.548  60.712  0.00  0.00    +0.000 Cl
ATOM     24  C   UNL     1     -39.188-295.981  61.724  0.00  0.00    +0.000 A 
ENDBRANCH  17  18
ENDBRANCH   5  17
TORSDOF 6
ENDMDL
MODEL 7
REMARK VINA RESULT:     0.001      6.628      9.332
REMARK INTER + INTRA:          -2.002
REMARK INTER:                   0.000
REMARK INTRA:                  -2.002
REMARK UNBOUND:                -2.003
REMARK  Name = 
REMARK  7 active torsions:
REMARK  status: ('A' for Active; 'I' for Inactive)
REMARK    1  A    between atoms: C_1  and  C_2
REMARK    2  A    between atoms: C_2  and  C_3
REMARK    3  A    between atoms: N_5  and  C_6
REMARK    4  A    between atoms: N_5  and  C_20
REMARK    5  A    between atoms: C_6  and  C_7
REMARK    6  A    between atoms: N_11  and  C_12
REMARK    7  A    between atoms: C_12  and  C_13
REMARK                            x       y       z     vdW  Elec       q    Type
REMARK                         _______ _______ _______ _____ _____    ______ ____
ROOT
ATOM      1  C   UNL     1     -42.391-299.258  63.733  0.00  0.00    +0.000 A 
ATOM      2  N   UNL     1     -43.409-300.095  63.556  0.00  0.00    +0.000 NA
ATOM      3  C   UNL     1     -43.286-300.622  62.310  0.00  0.00    +0.000 A 
ATOM      4  C   UNL     1     -42.241-300.033  61.658  0.00  0.00    +0.000 A 
ATOM      5  N   UNL     1     -41.630-299.187  62.561  0.00  0.00    +0.000 N 
ENDROOT
BRANCH   1   6
ATOM      6  C   UNL     1     -42.168-298.525  65.050  0.00  0.00    +0.000 C 
BRANCH   6   9
ATOM      7  C   UNL     1     -44.141-298.790  66.720  0.00  0.00    +0.000 C 
ATOM      8  O   UNL     1     -45.132-298.373  67.299  0.00  0.00    +0.000 OA
ATOM      9  N   UNL     1     -43.464-298.118  65.683  0.00  0.00    +0.000 N 
BRANCH   9  10
ATOM     10  C   UNL     1     -43.946-296.770  65.363  0.00  0.00    +0.000 C 
ATOM     11  C   UNL     1     -42.856-295.701  65.228  0.00  0.00    +0.000 C 
ATOM     12  C   UNL     1     -43.490-294.615  64.382  0.00  0.00    +0.000 C 
ATOM     13  C   UNL     1     -44.580-295.291  63.552  0.00  0.00    +0.000 C 
ATOM     14  C   UNL     1     -44.699-296.729  64.037  0.00  0.00    +0.000 C 
ENDBRANCH   9  10
BRANCH   7  16
ATOM     15  C   UNL     1     -44.752-301.073  66.806  0.00  0.00    +0.000 C 
ATOM     16  C   UNL     1     -43.671-300.141  67.143  0.00  0.00    +0.000 C 
ENDBRANCH   7  16
ENDBRANCH   6   9
ENDBRANCH   1   6
BRANCH   5  17
ATOM     17  C   UNL     1     -40.465-298.344  62.196  0.00  0.00    +0.000 C 
BRANCH  17  18
ATOM     18  C   UNL     1     -40.794-296.848  62.025  0.00  0.00    +0.000 A 
ATOM     19  C   UNL     1     -41.779-296.435  61.134  0.00  0.00    +0.000 A 
ATOM     20  C   UNL     1     -42.048-295.079  60.898  0.00  0.00    +0.000 A 
ATOM     21  C   UNL     1     -41.279-294.079  61.482  0.00  0.00    +0.000 A 
ATOM     22  C   UNL     1     -40.314-294.450  62.388  0.00  0.00    +0.000 A 
ATOM     23 CL   UNL     1     -39.254-293.278  63.077  0.00  0.00    +0.000 Cl
ATOM     24  C   UNL     1     -40.201-295.797  62.749  0.00  0.00    +0.000 A 
ENDBRANCH  17  18
ENDBRANCH   5  17
TORSDOF 6
ENDMDL
MODEL 8
REMARK VINA RESULT:     0.001      5.958      7.650
REMARK INTER + INTRA:          -2.002
REMARK INTER:                   0.000
REMARK INTRA:                  -2.002
REMARK UNBOUND:                -2.003
REMARK  Name = 
REMARK  7 active torsions:
REMARK  status: ('A' for Active; 'I' for Inactive)
REMARK    1  A    between atoms: C_1  and  C_2
REMARK    2  A    between atoms: C_2  and  C_3
REMARK    3  A    between atoms: N_5  and  C_6
REMARK    4  A    between atoms: N_5  and  C_20
REMARK    5  A    between atoms: C_6  and  C_7
REMARK    6  A    between atoms: N_11  and  C_12
REMARK    7  A    between atoms: C_12  and  C_13
REMARK                            x       y       z     vdW  Elec       q    Type
REMARK                         _______ _______ _______ _____ _____    ______ ____
ROOT
ATOM      1  C   UNL     1     -43.195-298.384  62.446  0.00  0.00    +0.000 A 
ATOM      2  N   UNL     1     -44.280-298.425  61.679  0.00  0.00    +0.000 NA
ATOM      3  C   UNL     1     -45.157-299.280  62.269  0.00  0.00    +0.000 A 
ATOM      4  C   UNL     1     -44.577-299.863  63.358  0.00  0.00    +0.000 A 
ATOM      5  N   UNL     1     -43.337-299.276  63.514  0.00  0.00    +0.000 N 
ENDROOT
BRANCH   1   6
ATOM      6  C   UNL     1     -42.016-297.473  62.127  0.00  0.00    +0.000 C 
BRANCH   6   9
ATOM      7  C   UNL     1     -42.196-296.335  59.798  0.00  0.00    +0.000 C 
ATOM      8  O   UNL     1     -41.883-296.220  58.623  0.00  0.00    +0.000 OA
ATOM      9  N   UNL     1     -41.776-297.376  60.651  0.00  0.00    +0.000 N 
BRANCH   9  10
ATOM     10  C   UNL     1     -40.808-298.324  60.087  0.00  0.00    +0.000 C 
ATOM     11  C   UNL     1     -39.604-298.637  60.982  0.00  0.00    +0.000 C 
ATOM     12  C   UNL     1     -39.097-299.975  60.483  0.00  0.00    +0.000 C 
ATOM     13  C   UNL     1     -40.288-300.675  59.829  0.00  0.00    +0.000 C 
ATOM     14  C   UNL     1     -41.440-299.680  59.792  0.00  0.00    +0.000 C 
ENDBRANCH   9  10
BRANCH   7  16
ATOM     15  C   UNL     1     -44.379-295.457  59.561  0.00  0.00    +0.000 C 
ATOM     16  C   UNL     1     -43.133-295.298  60.317  0.00  0.00    +0.000 C 
ENDBRANCH   7  16
ENDBRANCH   6   9
ENDBRANCH   1   6
BRANCH   5  17
ATOM     17  C   UNL     1     -42.396-299.682  64.587  0.00  0.00    +0.000 C 
BRANCH  17  18
ATOM     18  C   UNL     1     -41.202-300.524  64.097  0.00  0.00    +0.000 A 
ATOM     19  C   UNL     1     -41.407-301.703  63.389  0.00  0.00    +0.000 A 
ATOM     20  C   UNL     1     -40.345-302.530  62.998  0.00  0.00    +0.000 A 
ATOM     21  C   UNL     1     -39.037-302.252  63.378  0.00  0.00    +0.000 A 
ATOM     22  C   UNL     1     -38.793-301.082  64.055  0.00  0.00    +0.000 A 
ATOM     23 CL   UNL     1     -37.216-300.717  64.648  0.00  0.00    +0.000 Cl
ATOM     24  C   UNL     1     -39.846-300.183  64.260  0.00  0.00    +0.000 A 
ENDBRANCH  17  18
ENDBRANCH   5  17
TORSDOF 6
ENDMDL
MODEL 9
REMARK VINA RESULT:     0.001      8.097      9.916
REMARK INTER + INTRA:          -2.001
REMARK INTER:                   0.000
REMARK INTRA:                  -2.001
REMARK UNBOUND:                -2.003
REMARK  Name = 
REMARK  7 active torsions:
REMARK  status: ('A' for Active; 'I' for Inactive)
REMARK    1  A    between atoms: C_1  and  C_2
REMARK    2  A    between atoms: C_2  and  C_3
REMARK    3  A    between atoms: N_5  and  C_6
REMARK    4  A    between atoms: N_5  and  C_20
REMARK    5  A    between atoms: C_6  and  C_7
REMARK    6  A    between atoms: N_11  and  C_12
REMARK    7  A    between atoms: C_12  and  C_13
REMARK                            x       y       z     vdW  Elec       q    Type
REMARK                         _______ _______ _______ _____ _____    ______ ____
ROOT
ATOM      1  C   UNL     1     -44.422-306.338  65.776  0.00  0.00    +0.000 A 
ATOM      2  N   UNL     1     -45.097-307.286  66.419  0.00  0.00    +0.000 NA
ATOM      3  C   UNL     1     -45.028-307.001  67.746  0.00  0.00    +0.000 A 
ATOM      4  C   UNL     1     -44.214-305.924  67.948  0.00  0.00    +0.000 A 
ATOM      5  N   UNL     1     -43.846-305.460  66.701  0.00  0.00    +0.000 N 
ENDROOT
BRANCH   1   6
ATOM      6  C   UNL     1     -44.336-306.297  64.255  0.00  0.00    +0.000 C 
BRANCH   6   9
ATOM      7  C   UNL     1     -45.301-308.423  63.114  0.00  0.00    +0.000 C 
ATOM      8  O   UNL     1     -45.177-309.491  62.534  0.00  0.00    +0.000 OA
ATOM      9  N   UNL     1     -44.244-307.673  63.670  0.00  0.00    +0.000 N 
BRANCH   9  10
ATOM     10  C   UNL     1     -42.891-308.188  63.432  0.00  0.00    +0.000 C 
ATOM     11  C   UNL     1     -41.871-307.147  62.959  0.00  0.00    +0.000 C 
ATOM     12  C   UNL     1     -40.524-307.741  63.322  0.00  0.00    +0.000 C 
ATOM     13  C   UNL     1     -40.772-308.697  64.489  0.00  0.00    +0.000 C 
ATOM     14  C   UNL     1     -42.278-308.792  64.691  0.00  0.00    +0.000 C 
ENDBRANCH   9  10
BRANCH   7  16
ATOM     15  C   UNL     1     -47.393-308.917  64.100  0.00  0.00    +0.000 C 
ATOM     16  C   UNL     1     -46.701-307.932  63.262  0.00  0.00    +0.000 C 
ENDBRANCH   7  16
ENDBRANCH   6   9
ENDBRANCH   1   6
BRANCH   5  17
ATOM     17  C   UNL     1     -42.929-304.307  66.522  0.00  0.00    +0.000 C 
BRANCH  17  18
ATOM     18  C   UNL     1     -41.508-304.693  66.066  0.00  0.00    +0.000 A 
ATOM     19  C   UNL     1     -40.748-305.596  66.802  0.00  0.00    +0.000 A 
ATOM     20  C   UNL     1     -39.425-305.908  66.457  0.00  0.00    +0.000 A 
ATOM     21  C   UNL     1     -38.780-305.260  65.410  0.00  0.00    +0.000 A 
ATOM     22  C   UNL     1     -39.509-304.381  64.645  0.00  0.00    +0.000 A 
ATOM     23 CL   UNL     1     -38.755-303.463  63.396  0.00  0.00    +0.000 Cl
ATOM     24  C   UNL     1     -40.878-304.237  64.893  0.00  0.00    +0.000 A 
ENDBRANCH  17  18
ENDBRANCH   5  17
TORSDOF 6
ENDMDL
MODEL 10
REMARK VINA RESULT:     0.001      8.360     10.859
REMARK INTER + INTRA:          -2.001
REMARK INTER:                   0.000
REMARK INTRA:                  -2.001
REMARK UNBOUND:                -2.003
REMARK  Name = 
REMARK  7 active torsions:
REMARK  status: ('A' for Active; 'I' for Inactive)
REMARK    1  A    between atoms: C_1  and  C_2
REMARK    2  A    between atoms: C_2  and  C_3
REMARK    3  A    between atoms: N_5  and  C_6
REMARK    4  A    between atoms: N_5  and  C_20
REMARK    5  A    between atoms: C_6  and  C_7
REMARK    6  A    between atoms: N_11  and  C_12
REMARK    7  A    between atoms: C_12  and  C_13
REMARK                            x       y       z     vdW  Elec       q    Type
REMARK                         _______ _______ _______ _____ _____    ______ ____
ROOT
ATOM      1  C   UNL     1     -44.496-305.984  67.200  0.00  0.00    +0.000 A 
ATOM      2  N   UNL     1     -45.011-307.189  67.420  0.00  0.00    +0.000 NA
ATOM      3  C   UNL     1     -45.192-307.312  68.761  0.00  0.00    +0.000 A 
ATOM      4  C   UNL     1     -44.688-306.215  69.400  0.00  0.00    +0.000 A 
ATOM      5  N   UNL     1     -44.274-305.335  68.419  0.00  0.00    +0.000 N 
ENDROOT
BRANCH   1   6
ATOM      6  C   UNL     1     -44.217-305.470  65.793  0.00  0.00    +0.000 C 
BRANCH   6   9
ATOM      7  C   UNL     1     -44.491-307.291  63.959  0.00  0.00    +0.000 C 
ATOM      8  O   UNL     1     -44.043-308.091  63.154  0.00  0.00    +0.000 OA
ATOM      9  N   UNL     1     -43.726-306.563  64.892  0.00  0.00    +0.000 N 
BRANCH   9  10
ATOM     10  C   UNL     1     -42.270-306.721  64.799  0.00  0.00    +0.000 C 
ATOM     11  C   UNL     1     -41.469-305.416  64.831  0.00  0.00    +0.000 C 
ATOM     12  C   UNL     1     -40.082-305.831  65.283  0.00  0.00    +0.000 C 
ATOM     13  C   UNL     1     -40.255-307.123  66.080  0.00  0.00    +0.000 C 
ATOM     14  C   UNL     1     -41.709-307.553  65.947  0.00  0.00    +0.000 C 
ENDBRANCH   9  10
BRANCH   7  16
ATOM     15  C   UNL     1     -46.523-308.439  64.344  0.00  0.00    +0.000 C 
ATOM     16  C   UNL     1     -45.975-307.137  63.953  0.00  0.00    +0.000 C 
ENDBRANCH   7  16
ENDBRANCH   6   9
ENDBRANCH   1   6
BRANCH   5  17
ATOM     17  C   UNL     1     -43.637-304.034  68.738  0.00  0.00    +0.000 C 
BRANCH  17  18
ATOM     18  C   UNL     1     -42.117-303.994  68.487  0.00  0.00    +0.000 A 
ATOM     19  C   UNL     1     -41.273-304.919  69.092  0.00  0.00    +0.000 A 
ATOM     20  C   UNL     1     -39.880-304.862  68.945  0.00  0.00    +0.000 A 
ATOM     21  C   UNL     1     -39.270-303.819  68.257  0.00  0.00    +0.000 A 
ATOM     22  C   UNL     1     -40.073-302.901  67.625  0.00  0.00    +0.000 A 
ATOM     23 CL   UNL     1     -39.394-301.526  66.840  0.00  0.00    +0.000 Cl
ATOM     24  C   UNL     1     -41.459-303.096  67.626  0.00  0.00    +0.000 A 
ENDBRANCH  17  18
ENDBRANCH   5  17
TORSDOF 6
ENDMDL
