MODEL 1
REMARK VINA RESULT:     0.000      0.000      0.000
REMARK INTER + INTRA:          -0.522
REMARK INTER:                   0.000
REMARK INTRA:                  -0.522
REMARK UNBOUND:                -0.522
REMARK  Name = 
REMARK  8 active torsions:
REMARK  status: ('A' for Active; 'I' for Inactive)
REMARK    1  A    between atoms: C_1  and  C_2
REMARK    2  A    between atoms: C_2  and  C_3
REMARK    3  A    between atoms: C_3  and  O_4
REMARK    4  A    between atoms: O_4  and  C_5
REMARK    5  A    between atoms: C_5  and  C_7
REMARK    6  A    between atoms: C_10  and  C_11
REMARK    7  A    between atoms: C_12  and  S_13
REMARK    8  A    between atoms: S_13  and  N_16
REMARK                            x       y       z     vdW  Elec       q    Type
REMARK                         _______ _______ _______ _____ _____    ______ ____
ROOT
ATOM      1  C   UNL     1     -40.934-300.370  57.466  0.00  0.00    +0.000 A 
ATOM      2  C   UNL     1     -40.188-300.715  56.357  0.00  0.00    +0.000 A 
ATOM      3  C   UNL     1     -39.530-299.685  55.595  0.00  0.00    +0.000 A 
ATOM      4  C   UNL     1     -39.709-298.276  55.803  0.00  0.00    +0.000 A 
ATOM      5  C   UNL     1     -39.042-297.236  54.961  0.00  0.00    +0.000 C 
ATOM      6  C   UNL     1     -40.328-297.909  56.980  0.00  0.00    +0.000 A 
ATOM      7  C   UNL     1     -40.706-299.040  57.884  0.00  0.00    +0.000 A 
ENDROOT
BRANCH   6   8
ATOM      8  S   UNL     1     -41.089-295.873  56.964  0.00  0.00    +0.000 S 
ATOM      9  O   UNL     1     -41.527-295.594  55.591  0.00  0.00    +0.000 OA
ATOM     10  O   UNL     1     -42.004-295.827  58.081  0.00  0.00    +0.000 OA
BRANCH   8  11
ATOM     11  N   UNL     1     -39.863-294.506  57.418  0.00  0.00    +0.000 NA
ATOM     12  C   UNL     1     -38.276-294.698  57.518  0.00  0.00    +0.000 C 
ATOM     13  C   UNL     1     -37.812-295.991  58.184  0.00  0.00    +0.000 C 
ATOM     14  O   UNL     1     -38.256-295.765  59.510  0.00  0.00    +0.000 OA
ATOM     15  C   UNL     1     -39.640-295.493  59.363  0.00  0.00    +0.000 C 
ATOM     16  C   UNL     1     -40.271-294.195  58.779  0.00  0.00    +0.000 C 
ENDBRANCH   8  11
ENDBRANCH   6   8
BRANCH   1  17
ATOM     17  C   UNL     1     -42.143-301.269  58.018  0.00  0.00    +0.000 C 
ATOM     18  O   UNL     1     -41.947-302.371  58.514  0.00  0.00    +0.000 OA
BRANCH  17  19
ATOM     19  O   UNL     1     -43.413-300.719  57.914  0.00  0.00    +0.000 OA
BRANCH  19  20
ATOM     20  C   UNL     1     -44.227-300.277  56.692  0.00  0.00    +0.000 C 
BRANCH  20  22
ATOM     21  C   UNL     1     -43.257-298.678  54.791  0.00  0.00    +0.000 C 
ATOM     22  C   UNL     1     -44.040-298.799  56.297  0.00  0.00    +0.000 C 
ENDBRANCH  20  22
ENDBRANCH  19  20
ENDBRANCH  17  19
ENDBRANCH   1  17
TORSDOF 6
ENDMDL
MODEL 2
REMARK VINA RESULT:     0.000      6.153      7.529
REMARK INTER + INTRA:          -0.522
REMARK INTER:                   0.000
REMARK INTRA:                  -0.522
REMARK UNBOUND:                -0.522
REMARK  Name = 
REMARK  8 active torsions:
REMARK  status: ('A' for Active; 'I' for Inactive)
REMARK    1  A    between atoms: C_1  and  C_2
REMARK    2  A    between atoms: C_2  and  C_3
REMARK    3  A    between atoms: C_3  and  O_4
REMARK    4  A    between atoms: O_4  and  C_5
REMARK    5  A    between atoms: C_5  and  C_7
REMARK    6  A    between atoms: C_10  and  C_11
REMARK    7  A    between atoms: C_12  and  S_13
REMARK    8  A    between atoms: S_13  and  N_16
REMARK                            x       y       z     vdW  Elec       q    Type
REMARK                         _______ _______ _______ _____ _____    ______ ____
ROOT
ATOM      1  C   UNL     1     -45.626-298.574  62.581  0.00  0.00    +0.000 A 
ATOM      2  C   UNL     1     -45.782-297.610  61.607  0.00  0.00    +0.000 A 
ATOM      3  C   UNL     1     -44.624-296.930  61.087  0.00  0.00    +0.000 A 
ATOM      4  C   UNL     1     -43.295-297.062  61.615  0.00  0.00    +0.000 A 
ATOM      5  C   UNL     1     -42.124-296.305  61.077  0.00  0.00    +0.000 C 
ATOM      6  C   UNL     1     -43.089-298.113  62.485  0.00  0.00    +0.000 A 
ATOM      7  C   UNL     1     -44.282-298.981  62.735  0.00  0.00    +0.000 A 
ENDROOT
BRANCH   6   8
ATOM      8  S   UNL     1     -41.284-297.912  63.679  0.00  0.00    +0.000 S 
ATOM      9  O   UNL     1     -41.105-296.479  63.941  0.00  0.00    +0.000 OA
ATOM     10  O   UNL     1     -41.458-298.867  64.749  0.00  0.00    +0.000 OA
BRANCH   8  11
ATOM     11  N   UNL     1     -39.674-298.512  62.889  0.00  0.00    +0.000 NA
ATOM     12  C   UNL     1     -39.494-298.870  61.338  0.00  0.00    +0.000 C 
ATOM     13  C   UNL     1     -40.649-299.643  60.705  0.00  0.00    +0.000 C 
ATOM     14  O   UNL     1     -40.540-300.873  61.399  0.00  0.00    +0.000 OA
ATOM     15  C   UNL     1     -40.593-300.499  62.765  0.00  0.00    +0.000 C 
ATOM     16  C   UNL     1     -39.473-299.780  63.573  0.00  0.00    +0.000 C 
ENDBRANCH   8  11
ENDBRANCH   6   8
BRANCH   1  17
ATOM     17  C   UNL     1     -46.783-298.954  63.626  0.00  0.00    +0.000 C 
ATOM     18  O   UNL     1     -47.815-299.506  63.265  0.00  0.00    +0.000 OA
BRANCH  17  19
ATOM     19  O   UNL     1     -46.540-298.635  64.954  0.00  0.00    +0.000 OA
BRANCH  19  20
ATOM     20  C   UNL     1     -46.292-297.288  65.643  0.00  0.00    +0.000 C 
BRANCH  20  22
ATOM     21  C   UNL     1     -44.510-295.512  64.760  0.00  0.00    +0.000 C 
ATOM     22  C   UNL     1     -44.809-296.876  65.732  0.00  0.00    +0.000 C 
ENDBRANCH  20  22
ENDBRANCH  19  20
ENDBRANCH  17  19
ENDBRANCH   1  17
TORSDOF 6
ENDMDL
MODEL 3
REMARK VINA RESULT:     0.000      7.244      8.645
REMARK INTER + INTRA:          -0.522
REMARK INTER:                   0.000
REMARK INTRA:                  -0.522
REMARK UNBOUND:                -0.522
REMARK  Name = 
REMARK  8 active torsions:
REMARK  status: ('A' for Active; 'I' for Inactive)
REMARK    1  A    between atoms: C_1  and  C_2
REMARK    2  A    between atoms: C_2  and  C_3
REMARK    3  A    between atoms: C_3  and  O_4
REMARK    4  A    between atoms: O_4  and  C_5
REMARK    5  A    between atoms: C_5  and  C_7
REMARK    6  A    between atoms: C_10  and  C_11
REMARK    7  A    between atoms: C_12  and  S_13
REMARK    8  A    between atoms: S_13  and  N_16
REMARK                            x       y       z     vdW  Elec       q    Type
REMARK                         _______ _______ _______ _____ _____    ______ ____
ROOT
ATOM      1  C   UNL     1     -47.558-300.115  62.845  0.00  0.00    +0.000 A 
ATOM      2  C   UNL     1     -48.420-299.092  62.508  0.00  0.00    +0.000 A 
ATOM      3  C   UNL     1     -47.933-297.738  62.460  0.00  0.00    +0.000 A 
ATOM      4  C   UNL     1     -46.626-297.326  62.890  0.00  0.00    +0.000 A 
ATOM      5  C   UNL     1     -46.171-295.902  62.866  0.00  0.00    +0.000 C 
ATOM      6  C   UNL     1     -45.707-298.334  63.094  0.00  0.00    +0.000 A 
ATOM      7  C   UNL     1     -46.202-299.719  62.814  0.00  0.00    +0.000 A 
ENDROOT
BRANCH   6   8
ATOM      8  S   UNL     1     -43.995-297.722  64.284  0.00  0.00    +0.000 S 
ATOM      9  O   UNL     1     -44.483-296.739  65.258  0.00  0.00    +0.000 OA
ATOM     10  O   UNL     1     -43.385-298.966  64.695  0.00  0.00    +0.000 OA
BRANCH   8  11
ATOM     11  N   UNL     1     -42.573-296.888  63.356  0.00  0.00    +0.000 NA
ATOM     12  C   UNL     1     -42.657-296.342  61.853  0.00  0.00    +0.000 C 
ATOM     13  C   UNL     1     -43.401-297.243  60.869  0.00  0.00    +0.000 C 
ATOM     14  O   UNL     1     -42.521-298.352  60.827  0.00  0.00    +0.000 OA
ATOM     15  C   UNL     1     -42.389-298.733  62.186  0.00  0.00    +0.000 C 
ATOM     16  C   UNL     1     -41.601-297.968  63.290  0.00  0.00    +0.000 C 
ENDBRANCH   8  11
ENDBRANCH   6   8
BRANCH   1  17
ATOM     17  C   UNL     1     -48.054-301.495  63.497  0.00  0.00    +0.000 C 
ATOM     18  O   UNL     1     -48.729-302.296  62.863  0.00  0.00    +0.000 OA
BRANCH  17  19
ATOM     19  O   UNL     1     -47.661-301.730  64.807  0.00  0.00    +0.000 OA
BRANCH  19  20
ATOM     20  C   UNL     1     -47.938-300.956  66.102  0.00  0.00    +0.000 C 
BRANCH  20  22
ATOM     21  C   UNL     1     -47.556-298.328  66.341  0.00  0.00    +0.000 C 
ATOM     22  C   UNL     1     -46.883-299.888  66.448  0.00  0.00    +0.000 C 
ENDBRANCH  20  22
ENDBRANCH  19  20
ENDBRANCH  17  19
ENDBRANCH   1  17
TORSDOF 6
ENDMDL
MODEL 4
REMARK VINA RESULT:     0.000      4.637      5.697
REMARK INTER + INTRA:          -0.522
REMARK INTER:                   0.000
REMARK INTRA:                  -0.522
REMARK UNBOUND:                -0.522
REMARK  Name = 
REMARK  8 active torsions:
REMARK  status: ('A' for Active; 'I' for Inactive)
REMARK    1  A    between atoms: C_1  and  C_2
REMARK    2  A    between atoms: C_2  and  C_3
REMARK    3  A    between atoms: C_3  and  O_4
REMARK    4  A    between atoms: O_4  and  C_5
REMARK    5  A    between atoms: C_5  and  C_7
REMARK    6  A    between atoms: C_10  and  C_11
REMARK    7  A    between atoms: C_12  and  S_13
REMARK    8  A    between atoms: S_13  and  N_16
REMARK                            x       y       z     vdW  Elec       q    Type
REMARK                         _______ _______ _______ _____ _____    ______ ____
ROOT
ATOM      1  C   UNL     1     -42.747-300.312  63.108  0.00  0.00    +0.000 A 
ATOM      2  C   UNL     1     -42.470-301.663  63.137  0.00  0.00    +0.000 A 
ATOM      3  C   UNL     1     -41.200-302.139  62.651  0.00  0.00    +0.000 A 
ATOM      4  C   UNL     1     -40.227-301.325  61.978  0.00  0.00    +0.000 A 
ATOM      5  C   UNL     1     -38.938-301.865  61.447  0.00  0.00    +0.000 C 
ATOM      6  C   UNL     1     -40.415-299.961  62.061  0.00  0.00    +0.000 A 
ATOM      7  C   UNL     1     -41.600-299.524  62.864  0.00  0.00    +0.000 A 
ENDROOT
BRANCH   6   8
ATOM      8  S   UNL     1     -39.299-298.838  60.572  0.00  0.00    +0.000 S 
ATOM      9  O   UNL     1     -39.249-299.668  59.362  0.00  0.00    +0.000 OA
ATOM     10  O   UNL     1     -39.916-297.532  60.575  0.00  0.00    +0.000 OA
BRANCH   8  11
ATOM     11  N   UNL     1     -37.505-298.414  60.999  0.00  0.00    +0.000 NA
ATOM     12  C   UNL     1     -36.676-299.059  62.208  0.00  0.00    +0.000 C 
ATOM     13  C   UNL     1     -37.447-299.228  63.515  0.00  0.00    +0.000 C 
ATOM     14  O   UNL     1     -37.648-297.871  63.867  0.00  0.00    +0.000 OA
ATOM     15  C   UNL     1     -38.283-297.315  62.728  0.00  0.00    +0.000 C 
ATOM     16  C   UNL     1     -37.619-297.008  61.354  0.00  0.00    +0.000 C 
ENDBRANCH   8  11
ENDBRANCH   6   8
BRANCH   1  17
ATOM     17  C   UNL     1     -44.241-299.730  63.043  0.00  0.00    +0.000 C 
ATOM     18  O   UNL     1     -45.015-299.848  63.985  0.00  0.00    +0.000 OA
BRANCH  17  19
ATOM     19  O   UNL     1     -44.595-299.077  61.871  0.00  0.00    +0.000 OA
BRANCH  19  20
ATOM     20  C   UNL     1     -44.661-299.568  60.419  0.00  0.00    +0.000 C 
BRANCH  20  22
ATOM     21  C   UNL     1     -42.664-300.862  59.217  0.00  0.00    +0.000 C 
ATOM     22  C   UNL     1     -43.364-299.362  59.614  0.00  0.00    +0.000 C 
ENDBRANCH  20  22
ENDBRANCH  19  20
ENDBRANCH  17  19
ENDBRANCH   1  17
TORSDOF 6
ENDMDL
MODEL 5
REMARK VINA RESULT:     0.000      8.120     11.916
REMARK INTER + INTRA:          -0.522
REMARK INTER:                   0.000
REMARK INTRA:                  -0.522
REMARK UNBOUND:                -0.522
REMARK  Name = 
REMARK  8 active torsions:
REMARK  status: ('A' for Active; 'I' for Inactive)
REMARK    1  A    between atoms: C_1  and  C_2
REMARK    2  A    between atoms: C_2  and  C_3
REMARK    3  A    between atoms: C_3  and  O_4
REMARK    4  A    between atoms: O_4  and  C_5
REMARK    5  A    between atoms: C_5  and  C_7
REMARK    6  A    between atoms: C_10  and  C_11
REMARK    7  A    between atoms: C_12  and  S_13
REMARK    8  A    between atoms: S_13  and  N_16
REMARK                            x       y       z     vdW  Elec       q    Type
REMARK                         _______ _______ _______ _____ _____    ______ ____
ROOT
ATOM      1  C   UNL     1     -48.384-303.505  56.340  0.00  0.00    +0.000 A 
ATOM      2  C   UNL     1     -49.260-303.432  55.276  0.00  0.00    +0.000 A 
ATOM      3  C   UNL     1     -49.443-304.581  54.426  0.00  0.00    +0.000 A 
ATOM      4  C   UNL     1     -48.659-305.782  54.498  0.00  0.00    +0.000 A 
ATOM      5  C   UNL     1     -48.850-306.937  53.568  0.00  0.00    +0.000 C 
ATOM      6  C   UNL     1     -47.884-305.935  55.628  0.00  0.00    +0.000 A 
ATOM      7  C   UNL     1     -47.990-304.829  56.632  0.00  0.00    +0.000 A 
ENDROOT
BRANCH   6   8
ATOM      8  S   UNL     1     -46.316-307.424  55.412  0.00  0.00    +0.000 S 
ATOM      9  O   UNL     1     -45.869-307.372  54.015  0.00  0.00    +0.000 OA
ATOM     10  O   UNL     1     -45.416-307.155  56.510  0.00  0.00    +0.000 OA
BRANCH   8  11
ATOM     11  N   UNL     1     -46.801-309.221  55.747  0.00  0.00    +0.000 NA
ATOM     12  C   UNL     1     -48.307-309.752  55.881  0.00  0.00    +0.000 C 
ATOM     13  C   UNL     1     -49.252-308.850  56.671  0.00  0.00    +0.000 C 
ATOM     14  O   UNL     1     -48.688-308.965  57.965  0.00  0.00    +0.000 OA
ATOM     15  C   UNL     1     -47.333-308.592  57.779  0.00  0.00    +0.000 C 
ATOM     16  C   UNL     1     -46.231-309.431  57.068  0.00  0.00    +0.000 C 
ENDBRANCH   8  11
ENDBRANCH   6   8
BRANCH   1  17
ATOM     17  C   UNL     1     -47.659-302.215  56.962  0.00  0.00    +0.000 C 
ATOM     18  O   UNL     1     -48.290-301.353  57.560  0.00  0.00    +0.000 OA
BRANCH  17  19
ATOM     19  O   UNL     1     -46.283-302.145  56.796  0.00  0.00    +0.000 OA
BRANCH  19  20
ATOM     20  C   UNL     1     -45.418-302.085  55.531  0.00  0.00    +0.000 C 
BRANCH  20  22
ATOM     21  C   UNL     1     -45.697-303.784  53.494  0.00  0.00    +0.000 C 
ATOM     22  C   UNL     1     -44.966-303.458  54.997  0.00  0.00    +0.000 C 
ENDBRANCH  20  22
ENDBRANCH  19  20
ENDBRANCH  17  19
ENDBRANCH   1  17
TORSDOF 6
ENDMDL
MODEL 6
REMARK VINA RESULT:     0.001      6.375      9.026
REMARK INTER + INTRA:          -0.521
REMARK INTER:                   0.000
REMARK INTRA:                  -0.521
REMARK UNBOUND:                -0.522
REMARK  Name = 
REMARK  8 active torsions:
REMARK  status: ('A' for Active; 'I' for Inactive)
REMARK    1  A    between atoms: C_1  and  C_2
REMARK    2  A    between atoms: C_2  and  C_3
REMARK    3  A    between atoms: C_3  and  O_4
REMARK    4  A    between atoms: O_4  and  C_5
REMARK    5  A    between atoms: C_5  and  C_7
REMARK    6  A    between atoms: C_10  and  C_11
REMARK    7  A    between atoms: C_12  and  S_13
REMARK    8  A    between atoms: S_13  and  N_16
REMARK                            x       y       z     vdW  Elec       q    Type
REMARK                         _______ _______ _______ _____ _____    ______ ____
ROOT
ATOM      1  C   UNL     1     -42.143-298.065  63.103  0.00  0.00    +0.000 A 
ATOM      2  C   UNL     1     -41.513-298.200  64.323  0.00  0.00    +0.000 A 
ATOM      3  C   UNL     1     -41.648-299.430  65.061  0.00  0.00    +0.000 A 
ATOM      4  C   UNL     1     -42.530-300.504  64.700  0.00  0.00    +0.000 A 
ATOM      5  C   UNL     1     -42.676-301.749  65.517  0.00  0.00    +0.000 C 
ATOM      6  C   UNL     1     -43.058-300.456  63.427  0.00  0.00    +0.000 A 
ATOM      7  C   UNL     1     -42.614-299.295  62.593  0.00  0.00    +0.000 A 
ENDROOT
BRANCH   6   8
ATOM      8  S   UNL     1     -44.795-301.733  63.157  0.00  0.00    +0.000 S 
ATOM      9  O   UNL     1     -45.522-301.738  64.433  0.00  0.00    +0.000 OA
ATOM     10  O   UNL     1     -45.402-301.255  61.936  0.00  0.00    +0.000 OA
BRANCH   8  11
ATOM     11  N   UNL     1     -44.458-303.545  62.732  0.00  0.00    +0.000 NA
ATOM     12  C   UNL     1     -43.029-304.261  62.847  0.00  0.00    +0.000 C 
ATOM     13  C   UNL     1     -41.840-303.432  62.367  0.00  0.00    +0.000 C 
ATOM     14  O   UNL     1     -42.124-303.362  60.982  0.00  0.00    +0.000 OA
ATOM     15  C   UNL     1     -43.436-302.827  60.930  0.00  0.00    +0.000 C 
ATOM     16  C   UNL     1     -44.753-303.566  61.308  0.00  0.00    +0.000 C 
ENDBRANCH   8  11
ENDBRANCH   6   8
BRANCH   1  17
ATOM     17  C   UNL     1     -42.566-296.642  62.494  0.00  0.00    +0.000 C 
ATOM     18  O   UNL     1     -41.727-295.826  62.131  0.00  0.00    +0.000 OA
BRANCH  17  19
ATOM     19  O   UNL     1     -43.928-296.400  62.388  0.00  0.00    +0.000 OA
BRANCH  19  20
ATOM     20  C   UNL     1     -45.030-296.332  63.453  0.00  0.00    +0.000 C 
BRANCH  20  22
ATOM     21  C   UNL     1     -45.394-298.221  65.300  0.00  0.00    +0.000 C 
ATOM     22  C   UNL     1     -45.741-297.672  63.726  0.00  0.00    +0.000 C 
ENDBRANCH  20  22
ENDBRANCH  19  20
ENDBRANCH  17  19
ENDBRANCH   1  17
TORSDOF 6
ENDMDL
MODEL 7
REMARK VINA RESULT:     0.001      4.869      6.710
REMARK INTER + INTRA:          -0.520
REMARK INTER:                   0.000
REMARK INTRA:                  -0.520
REMARK UNBOUND:                -0.522
REMARK  Name = 
REMARK  8 active torsions:
REMARK  status: ('A' for Active; 'I' for Inactive)
REMARK    1  A    between atoms: C_1  and  C_2
REMARK    2  A    between atoms: C_2  and  C_3
REMARK    3  A    between atoms: C_3  and  O_4
REMARK    4  A    between atoms: O_4  and  C_5
REMARK    5  A    between atoms: C_5  and  C_7
REMARK    6  A    between atoms: C_10  and  C_11
REMARK    7  A    between atoms: C_12  and  S_13
REMARK    8  A    between atoms: S_13  and  N_16
REMARK                            x       y       z     vdW  Elec       q    Type
REMARK                         _______ _______ _______ _____ _____    ______ ____
ROOT
ATOM      1  C   UNL     1     -43.422-302.994  57.127  0.00  0.00    +0.000 A 
ATOM      2  C   UNL     1     -44.683-303.519  57.325  0.00  0.00    +0.000 A 
ATOM      3  C   UNL     1     -45.375-303.260  58.561  0.00  0.00    +0.000 A 
ATOM      4  C   UNL     1     -44.791-302.613  59.702  0.00  0.00    +0.000 A 
ATOM      5  C   UNL     1     -45.528-302.402  60.986  0.00  0.00    +0.000 C 
ATOM      6  C   UNL     1     -43.596-301.961  59.485  0.00  0.00    +0.000 A 
ATOM      7  C   UNL     1     -43.088-302.004  58.078  0.00  0.00    +0.000 A 
ENDROOT
BRANCH   6   8
ATOM      8  S   UNL     1     -42.496-301.532  61.310  0.00  0.00    +0.000 S 
ATOM      9  O   UNL     1     -42.760-302.639  62.237  0.00  0.00    +0.000 OA
ATOM     10  O   UNL     1     -41.161-301.220  60.855  0.00  0.00    +0.000 OA
BRANCH   8  11
ATOM     11  N   UNL     1     -42.966-299.947  62.230  0.00  0.00    +0.000 NA
ATOM     12  C   UNL     1     -44.276-299.073  61.937  0.00  0.00    +0.000 C 
ATOM     13  C   UNL     1     -44.622-298.885  60.462  0.00  0.00    +0.000 C 
ATOM     14  O   UNL     1     -43.527-298.088  60.046  0.00  0.00    +0.000 OA
ATOM     15  C   UNL     1     -42.391-298.847  60.423  0.00  0.00    +0.000 C 
ATOM     16  C   UNL     1     -41.864-299.068  61.871  0.00  0.00    +0.000 C 
ENDBRANCH   8  11
ENDBRANCH   6   8
BRANCH   1  17
ATOM     17  C   UNL     1     -42.349-303.654  56.133  0.00  0.00    +0.000 C 
ATOM     18  O   UNL     1     -42.522-303.663  54.921  0.00  0.00    +0.000 OA
BRANCH  17  19
ATOM     19  O   UNL     1     -41.216-304.195  56.724  0.00  0.00    +0.000 OA
BRANCH  19  20
ATOM     20  C   UNL     1     -41.050-305.333  57.738  0.00  0.00    +0.000 C 
BRANCH  20  22
ATOM     21  C   UNL     1     -42.454-305.480  60.000  0.00  0.00    +0.000 C 
ATOM     22  C   UNL     1     -41.067-304.886  59.213  0.00  0.00    +0.000 C 
ENDBRANCH  20  22
ENDBRANCH  19  20
ENDBRANCH  17  19
ENDBRANCH   1  17
TORSDOF 6
ENDMDL
MODEL 8
REMARK VINA RESULT:     0.002      9.851     12.168
REMARK INTER + INTRA:          -0.520
REMARK INTER:                   0.000
REMARK INTRA:                  -0.520
REMARK UNBOUND:                -0.522
REMARK  Name = 
REMARK  8 active torsions:
REMARK  status: ('A' for Active; 'I' for Inactive)
REMARK    1  A    between atoms: C_1  and  C_2
REMARK    2  A    between atoms: C_2  and  C_3
REMARK    3  A    between atoms: C_3  and  O_4
REMARK    4  A    between atoms: O_4  and  C_5
REMARK    5  A    between atoms: C_5  and  C_7
REMARK    6  A    between atoms: C_10  and  C_11
REMARK    7  A    between atoms: C_12  and  S_13
REMARK    8  A    between atoms: S_13  and  N_16
REMARK                            x       y       z     vdW  Elec       q    Type
REMARK                         _______ _______ _______ _____ _____    ______ ____
ROOT
ATOM      1  C   UNL     1     -51.222-305.264  58.106  0.00  0.00    +0.000 A 
ATOM      2  C   UNL     1     -51.377-304.468  56.990  0.00  0.00    +0.000 A 
ATOM      3  C   UNL     1     -50.272-304.291  56.083  0.00  0.00    +0.000 A 
ATOM      4  C   UNL     1     -48.937-304.762  56.324  0.00  0.00    +0.000 A 
ATOM      5  C   UNL     1     -47.804-304.521  55.378  0.00  0.00    +0.000 C 
ATOM      6  C   UNL     1     -48.789-305.672  57.350  0.00  0.00    +0.000 A 
ATOM      7  C   UNL     1     -50.053-306.055  58.054  0.00  0.00    +0.000 A 
ENDROOT
BRANCH   6   8
ATOM      8  S   UNL     1     -46.738-305.880  58.037  0.00  0.00    +0.000 S 
ATOM      9  O   UNL     1     -46.109-304.560  57.908  0.00  0.00    +0.000 OA
ATOM     10  O   UNL     1     -46.857-306.546  59.314  0.00  0.00    +0.000 OA
BRANCH   8  11
ATOM     11  N   UNL     1     -45.641-307.086  57.078  0.00  0.00    +0.000 NA
ATOM     12  C   UNL     1     -46.008-307.722  55.654  0.00  0.00    +0.000 C 
ATOM     13  C   UNL     1     -47.459-308.168  55.490  0.00  0.00    +0.000 C 
ATOM     14  O   UNL     1     -47.498-309.242  56.413  0.00  0.00    +0.000 OA
ATOM     15  C   UNL     1     -47.063-308.661  57.630  0.00  0.00    +0.000 C 
ATOM     16  C   UNL     1     -45.609-308.226  57.981  0.00  0.00    +0.000 C 
ENDBRANCH   8  11
ENDBRANCH   6   8
BRANCH   1  17
ATOM     17  C   UNL     1     -52.098-305.078  59.438  0.00  0.00    +0.000 C 
ATOM     18  O   UNL     1     -53.299-305.316  59.452  0.00  0.00    +0.000 OA
BRANCH  17  19
ATOM     19  O   UNL     1     -51.414-304.650  60.567  0.00  0.00    +0.000 OA
BRANCH  19  20
ATOM     20  C   UNL     1     -50.625-303.365  60.846  0.00  0.00    +0.000 C 
BRANCH  20  22
ATOM     21  C   UNL     1     -48.744-302.427  59.205  0.00  0.00    +0.000 C 
ATOM     22  C   UNL     1     -49.123-303.449  60.511  0.00  0.00    +0.000 C 
ENDBRANCH  20  22
ENDBRANCH  19  20
ENDBRANCH  17  19
ENDBRANCH   1  17
TORSDOF 6
ENDMDL
MODEL 9
REMARK VINA RESULT:     0.005      4.819      7.024
REMARK INTER + INTRA:          -0.516
REMARK INTER:                   0.000
REMARK INTRA:                  -0.516
REMARK UNBOUND:                -0.522
REMARK  Name = 
REMARK  8 active torsions:
REMARK  status: ('A' for Active; 'I' for Inactive)
REMARK    1  A    between atoms: C_1  and  C_2
REMARK    2  A    between atoms: C_2  and  C_3
REMARK    3  A    between atoms: C_3  and  O_4
REMARK    4  A    between atoms: O_4  and  C_5
REMARK    5  A    between atoms: C_5  and  C_7
REMARK    6  A    between atoms: C_10  and  C_11
REMARK    7  A    between atoms: C_12  and  S_13
REMARK    8  A    between atoms: S_13  and  N_16
REMARK                            x       y       z     vdW  Elec       q    Type
REMARK                         _______ _______ _______ _____ _____    ______ ____
ROOT
ATOM      1  C   UNL     1     -43.792-297.762  58.464  0.00  0.00    +0.000 A 
ATOM      2  C   UNL     1     -43.723-296.754  59.403  0.00  0.00    +0.000 A 
ATOM      3  C   UNL     1     -43.733-297.086  60.805  0.00  0.00    +0.000 A 
ATOM      4  C   UNL     1     -43.967-298.402  61.329  0.00  0.00    +0.000 A 
ATOM      5  C   UNL     1     -44.014-298.701  62.793  0.00  0.00    +0.000 C 
ATOM      6  C   UNL     1     -43.898-299.439  60.422  0.00  0.00    +0.000 A 
ATOM      7  C   UNL     1     -43.565-299.041  59.018  0.00  0.00    +0.000 A 
ENDROOT
BRANCH   6   8
ATOM      8  S   UNL     1     -44.825-301.274  61.126  0.00  0.00    +0.000 S 
ATOM      9  O   UNL     1     -45.970-300.881  61.957  0.00  0.00    +0.000 OA
ATOM     10  O   UNL     1     -44.988-302.071  59.932  0.00  0.00    +0.000 OA
BRANCH   8  11
ATOM     11  N   UNL     1     -43.755-302.407  62.198  0.00  0.00    +0.000 NA
ATOM     12  C   UNL     1     -42.356-301.989  62.857  0.00  0.00    +0.000 C 
ATOM     13  C   UNL     1     -41.430-301.169  61.963  0.00  0.00    +0.000 C 
ATOM     14  O   UNL     1     -41.116-302.132  60.974  0.00  0.00    +0.000 OA
ATOM     15  C   UNL     1     -42.382-302.553  60.495  0.00  0.00    +0.000 C 
ATOM     16  C   UNL     1     -43.405-303.453  61.250  0.00  0.00    +0.000 C 
ENDBRANCH   8  11
ENDBRANCH   6   8
BRANCH   1  17
ATOM     17  C   UNL     1     -44.371-297.536  56.984  0.00  0.00    +0.000 C 
ATOM     18  O   UNL     1     -43.788-296.834  56.168  0.00  0.00    +0.000 OA
BRANCH  17  19
ATOM     19  O   UNL     1     -45.556-298.193  56.683  0.00  0.00    +0.000 OA
BRANCH  19  20
ATOM     20  C   UNL     1     -46.957-298.089  57.300  0.00  0.00    +0.000 C 
BRANCH  20  22
ATOM     21  C   UNL     1     -47.397-298.225  59.926  0.00  0.00    +0.000 C 
ATOM     22  C   UNL     1     -47.221-299.069  58.459  0.00  0.00    +0.000 C 
ENDBRANCH  20  22
ENDBRANCH  19  20
ENDBRANCH  17  19
ENDBRANCH   1  17
TORSDOF 6
ENDMDL
MODEL 10
REMARK VINA RESULT:     0.005      7.096      9.081
REMARK INTER + INTRA:          -0.516
REMARK INTER:                   0.000
REMARK INTRA:                  -0.516
REMARK UNBOUND:                -0.522
REMARK  Name = 
REMARK  8 active torsions:
REMARK  status: ('A' for Active; 'I' for Inactive)
REMARK    1  A    between atoms: C_1  and  C_2
REMARK    2  A    between atoms: C_2  and  C_3
REMARK    3  A    between atoms: C_3  and  O_4
REMARK    4  A    between atoms: O_4  and  C_5
REMARK    5  A    between atoms: C_5  and  C_7
REMARK    6  A    between atoms: C_10  and  C_11
REMARK    7  A    between atoms: C_12  and  S_13
REMARK    8  A    between atoms: S_13  and  N_16
REMARK                            x       y       z     vdW  Elec       q    Type
REMARK                         _______ _______ _______ _____ _____    ______ ____
ROOT
ATOM      1  C   UNL     1     -45.395-303.634  62.009  0.00  0.00    +0.000 A 
ATOM      2  C   UNL     1     -44.789-304.002  60.824  0.00  0.00    +0.000 A 
ATOM      3  C   UNL     1     -43.352-304.032  60.740  0.00  0.00    +0.000 A 
ATOM      4  C   UNL     1     -42.465-303.555  61.764  0.00  0.00    +0.000 A 
ATOM      5  C   UNL     1     -40.976-303.562  61.621  0.00  0.00    +0.000 C 
ATOM      6  C   UNL     1     -43.032-303.318  62.998  0.00  0.00    +0.000 A 
ATOM      7  C   UNL     1     -44.496-303.616  63.098  0.00  0.00    +0.000 A 
ENDROOT
BRANCH   6   8
ATOM      8  S   UNL     1     -41.813-302.067  64.290  0.00  0.00    +0.000 S 
ATOM      9  O   UNL     1     -41.116-301.110  63.422  0.00  0.00    +0.000 OA
ATOM     10  O   UNL     1     -42.721-301.635  65.328  0.00  0.00    +0.000 OA
BRANCH   8  11
ATOM     11  N   UNL     1     -40.472-302.942  65.297  0.00  0.00    +0.000 NA
ATOM     12  C   UNL     1     -39.982-304.448  65.054  0.00  0.00    +0.000 C 
ATOM     13  C   UNL     1     -41.088-305.458  64.759  0.00  0.00    +0.000 C 
ATOM     14  O   UNL     1     -41.759-305.469  66.007  0.00  0.00    +0.000 OA
ATOM     15  C   UNL     1     -42.077-304.106  66.234  0.00  0.00    +0.000 C 
ATOM     16  C   UNL     1     -41.079-302.974  66.619  0.00  0.00    +0.000 C 
ENDBRANCH   8  11
ENDBRANCH   6   8
BRANCH   1  17
ATOM     17  C   UNL     1     -46.867-303.001  62.075  0.00  0.00    +0.000 C 
ATOM     18  O   UNL     1     -47.860-303.658  61.788  0.00  0.00    +0.000 OA
BRANCH  17  19
ATOM     19  O   UNL     1     -46.949-301.679  62.490  0.00  0.00    +0.000 OA
BRANCH  19  20
ATOM     20  C   UNL     1     -46.368-300.393  61.890  0.00  0.00    +0.000 C 
BRANCH  20  22
ATOM     21  C   UNL     1     -43.808-300.142  61.187  0.00  0.00    +0.000 C 
ATOM     22  C   UNL     1     -44.973-300.011  62.421  0.00  0.00    +0.000 C 
ENDBRANCH  20  22
ENDBRANCH  19  20
ENDBRANCH  17  19
ENDBRANCH   1  17
TORSDOF 6
ENDMDL
