MODEL 1
REMARK VINA RESULT:    -9.294      0.000      0.000
REMARK INTER + INTRA:         -13.708
REMARK INTER:                 -13.369
REMARK INTRA:                  -0.339
REMARK UNBOUND:                -0.339
REMARK  Name = 
REMARK  9 active torsions:
REMARK  status: ('A' for Active; 'I' for Inactive)
REMARK    1  A    between atoms: C_1  and  C_2
REMARK    2  A    between atoms: C_2  and  C_3
REMARK    3  A    between atoms: C_3  and  N_4
REMARK    4  A    between atoms: N_4  and  C_5
REMARK    5  A    between atoms: C_5  and  C_6
REMARK    6  A    between atoms: C_6  and  O_7
REMARK    7  A    between atoms: C_8  and  C_10
REMARK    8  A    between atoms: C_13  and  N_14
REMARK    9  A    between atoms: C_15  and  C_17
REMARK                            x       y       z     vdW  Elec       q    Type
REMARK                         _______ _______ _______ _____ _____    ______ ____
ROOT
ATOM      1  C   UNL     1     -42.444-157.621 307.912  0.00  0.00    +0.000 A 
ATOM      2  C   UNL     1     -42.416-158.071 309.208  0.00  0.00    +0.000 A 
ATOM      3  C   UNL     1     -41.478-159.058 309.492  0.00  0.00    +0.000 A 
ATOM      4  C   UNL     1     -40.972-159.918 308.525  0.00  0.00    +0.000 A 
ATOM      5  C   UNL     1     -40.985-159.420 307.255  0.00  0.00    +0.000 A 
ATOM      6  C   UNL     1     -41.385-158.093 307.131  0.00  0.00    +0.000 A 
ATOM      7 CL   UNL     1     -40.720-157.149 305.836  0.00  0.00    +0.000 Cl
ENDROOT
BRANCH   4   8
ATOM      8  N   UNL     1     -40.337-161.148 308.787  0.00  0.00    +0.000 N 
ATOM      9  C   UNL     1     -40.281-161.885 309.959  0.00  0.00    +0.000 C 
ATOM     10  O   UNL     1     -39.460-162.793 310.080  0.00  0.00    +0.000 OA
ATOM     11  H   UNL     1     -39.751-161.534 308.048  0.00  0.00    +0.000 HD
BRANCH   9  12
ATOM     12  C   UNL     1     -41.129-161.539 311.123  0.00  0.00    +0.000 A 
ATOM     13  C   UNL     1     -40.514-160.932 312.223  0.00  0.00    +0.000 A 
ATOM     14  C   UNL     1     -41.328-160.299 313.149  0.00  0.00    +0.000 A 
ATOM     15  N   UNL     1     -42.670-160.179 313.009  0.00  0.00    +0.000 NA
ATOM     16  C   UNL     1     -43.236-160.810 311.953  0.00  0.00    +0.000 A 
ATOM     17  C   UNL     1     -42.522-161.569 311.037  0.00  0.00    +0.000 A 
ATOM     18  F   UNL     1     -43.148-162.032 309.945  0.00  0.00    +0.000 F 
ENDBRANCH   9  12
ENDBRANCH   4   8
BRANCH   1  20
ATOM     19  N   UNL     1     -44.267-156.406 306.506  0.00  0.00    +0.000 N 
ATOM     20  C   UNL     1     -43.262-156.447 307.530  0.00  0.00    +0.000 C 
ATOM     21  O   UNL     1     -42.953-155.440 308.210  0.00  0.00    +0.000 OA
BRANCH  19  22
ATOM     22  C   UNL     1     -45.009-155.134 306.353  0.00  0.00    +0.000 C 
BRANCH  22  24
ATOM     23  C   UNL     1     -43.208-154.169 304.825  0.00  0.00    +0.000 C 
ATOM     24  C   UNL     1     -44.694-154.334 305.078  0.00  0.00    +0.000 C 
ENDBRANCH  22  24
ENDBRANCH  19  22
BRANCH  19  25
ATOM     25  C   UNL     1     -44.730-157.481 305.543  0.00  0.00    +0.000 C 
BRANCH  25  26
ATOM     26  C   UNL     1     -46.245-157.622 305.443  0.00  0.00    +0.000 C 
BRANCH  26  27
ATOM     27  O   UNL     1     -46.565-158.521 306.449  0.00  0.00    +0.000 OA
ATOM     28  H   UNL     1     -47.107-157.869 306.925  0.00  0.00    +0.000 HD
ENDBRANCH  26  27
ENDBRANCH  25  26
ENDBRANCH  19  25
ENDBRANCH   1  20
TORSDOF 8
ENDMDL
MODEL 2
REMARK VINA RESULT:    -9.200      2.853      7.262
REMARK INTER + INTRA:         -13.573
REMARK INTER:                 -13.420
REMARK INTRA:                  -0.154
REMARK UNBOUND:                -0.339
REMARK  Name = 
REMARK  9 active torsions:
REMARK  status: ('A' for Active; 'I' for Inactive)
REMARK    1  A    between atoms: C_1  and  C_2
REMARK    2  A    between atoms: C_2  and  C_3
REMARK    3  A    between atoms: C_3  and  N_4
REMARK    4  A    between atoms: N_4  and  C_5
REMARK    5  A    between atoms: C_5  and  C_6
REMARK    6  A    between atoms: C_6  and  O_7
REMARK    7  A    between atoms: C_8  and  C_10
REMARK    8  A    between atoms: C_13  and  N_14
REMARK    9  A    between atoms: C_15  and  C_17
REMARK                            x       y       z     vdW  Elec       q    Type
REMARK                         _______ _______ _______ _____ _____    ______ ____
ROOT
ATOM      1  C   UNL     1     -40.894-160.358 310.349  0.00  0.00    +0.000 A 
ATOM      2  C   UNL     1     -41.278-159.051 310.183  0.00  0.00    +0.000 A 
ATOM      3  C   UNL     1     -41.581-158.664 308.882  0.00  0.00    +0.000 A 
ATOM      4  C   UNL     1     -41.062-159.306 307.764  0.00  0.00    +0.000 A 
ATOM      5  C   UNL     1     -40.724-160.613 307.961  0.00  0.00    +0.000 A 
ATOM      6  C   UNL     1     -41.059-161.142 309.204  0.00  0.00    +0.000 A 
ATOM      7 CL   UNL     1     -41.430-162.833 309.307  0.00  0.00    +0.000 Cl
ENDROOT
BRANCH   4   8
ATOM      8  N   UNL     1     -41.010-158.759 306.467  0.00  0.00    +0.000 N 
ATOM      9  C   UNL     1     -41.774-157.752 305.898  0.00  0.00    +0.000 C 
ATOM     10  O   UNL     1     -41.777-157.591 304.679  0.00  0.00    +0.000 OA
ATOM     11  H   UNL     1     -40.388-159.209 305.798  0.00  0.00    +0.000 HD
BRANCH   9  12
ATOM     12  C   UNL     1     -42.678-156.917 306.723  0.00  0.00    +0.000 A 
ATOM     13  C   UNL     1     -42.127-155.817 307.389  0.00  0.00    +0.000 A 
ATOM     14  C   UNL     1     -42.998-154.849 307.865  0.00  0.00    +0.000 A 
ATOM     15  N   UNL     1     -44.337-154.879 307.660  0.00  0.00    +0.000 NA
ATOM     16  C   UNL     1     -44.839-155.976 307.046  0.00  0.00    +0.000 A 
ATOM     17  C   UNL     1     -44.065-157.053 306.638  0.00  0.00    +0.000 A 
ATOM     18  F   UNL     1     -44.632-158.025 305.908  0.00  0.00    +0.000 F 
ENDBRANCH   9  12
ENDBRANCH   4   8
BRANCH   1  20
ATOM     19  N   UNL     1     -41.714-160.963 312.745  0.00  0.00    +0.000 N 
ATOM     20  C   UNL     1     -40.729-160.938 311.702  0.00  0.00    +0.000 C 
ATOM     21  O   UNL     1     -39.576-161.407 311.855  0.00  0.00    +0.000 OA
BRANCH  19  22
ATOM     22  C   UNL     1     -41.344-161.666 313.994  0.00  0.00    +0.000 C 
BRANCH  22  24
ATOM     23  C   UNL     1     -41.961-162.340 316.377  0.00  0.00    +0.000 C 
ATOM     24  C   UNL     1     -42.374-161.576 315.133  0.00  0.00    +0.000 C 
ENDBRANCH  22  24
ENDBRANCH  19  22
BRANCH  19  25
ATOM     25  C   UNL     1     -43.120-160.397 312.779  0.00  0.00    +0.000 C 
BRANCH  25  26
ATOM     26  C   UNL     1     -43.183-158.882 312.948  0.00  0.00    +0.000 C 
BRANCH  26  27
ATOM     27  O   UNL     1     -44.084-158.699 313.986  0.00  0.00    +0.000 OA
ATOM     28  H   UNL     1     -43.448-158.183 314.511  0.00  0.00    +0.000 HD
ENDBRANCH  26  27
ENDBRANCH  25  26
ENDBRANCH  19  25
ENDBRANCH   1  20
TORSDOF 8
ENDMDL
MODEL 3
REMARK VINA RESULT:    -9.194      2.965      7.553
REMARK INTER + INTRA:         -13.564
REMARK INTER:                 -13.152
REMARK INTRA:                  -0.412
REMARK UNBOUND:                -0.339
REMARK  Name = 
REMARK  9 active torsions:
REMARK  status: ('A' for Active; 'I' for Inactive)
REMARK    1  A    between atoms: C_1  and  C_2
REMARK    2  A    between atoms: C_2  and  C_3
REMARK    3  A    between atoms: C_3  and  N_4
REMARK    4  A    between atoms: N_4  and  C_5
REMARK    5  A    between atoms: C_5  and  C_6
REMARK    6  A    between atoms: C_6  and  O_7
REMARK    7  A    between atoms: C_8  and  C_10
REMARK    8  A    between atoms: C_13  and  N_14
REMARK    9  A    between atoms: C_15  and  C_17
REMARK                            x       y       z     vdW  Elec       q    Type
REMARK                         _______ _______ _______ _____ _____    ______ ____
ROOT
ATOM      1  C   UNL     1     -42.359-159.528 311.056  0.00  0.00    +0.000 A 
ATOM      2  C   UNL     1     -42.407-158.205 310.697  0.00  0.00    +0.000 A 
ATOM      3  C   UNL     1     -42.234-157.932 309.344  0.00  0.00    +0.000 A 
ATOM      4  C   UNL     1     -41.552-158.785 308.484  0.00  0.00    +0.000 A 
ATOM      5  C   UNL     1     -41.556-160.097 308.859  0.00  0.00    +0.000 A 
ATOM      6  C   UNL     1     -42.338-160.405 309.968  0.00  0.00    +0.000 A 
ATOM      7 CL   UNL     1     -43.055-161.982 310.059  0.00  0.00    +0.000 Cl
ENDROOT
BRANCH   4   8
ATOM      8  N   UNL     1     -41.016-158.417 307.234  0.00  0.00    +0.000 N 
ATOM      9  C   UNL     1     -41.555-157.617 306.239  0.00  0.00    +0.000 C 
ATOM     10  O   UNL     1     -41.071-157.625 305.109  0.00  0.00    +0.000 OA
ATOM     11  H   UNL     1     -40.142-158.859 306.955  0.00  0.00    +0.000 HD
BRANCH   9  12
ATOM     12  C   UNL     1     -42.779-156.817 306.478  0.00  0.00    +0.000 A 
ATOM     13  C   UNL     1     -44.017-157.443 306.294  0.00  0.00    +0.000 A 
ATOM     14  C   UNL     1     -45.135-156.832 306.839  0.00  0.00    +0.000 A 
ATOM     15  N   UNL     1     -45.084-155.708 307.592  0.00  0.00    +0.000 NA
ATOM     16  C   UNL     1     -43.876-155.109 307.718  0.00  0.00    +0.000 A 
ATOM     17  C   UNL     1     -42.718-155.575 307.113  0.00  0.00    +0.000 A 
ATOM     18  F   UNL     1     -41.545-154.999 307.416  0.00  0.00    +0.000 F 
ENDBRANCH   9  12
ENDBRANCH   4   8
BRANCH   1  20
ATOM     19  N   UNL     1     -42.086-161.007 313.181  0.00  0.00    +0.000 N 
ATOM     20  C   UNL     1     -42.714-159.959 312.428  0.00  0.00    +0.000 C 
ATOM     21  O   UNL     1     -43.682-159.298 312.872  0.00  0.00    +0.000 OA
BRANCH  19  22
ATOM     22  C   UNL     1     -42.566-161.210 314.567  0.00  0.00    +0.000 C 
BRANCH  22  24
ATOM     23  C   UNL     1     -41.944-161.968 316.922  0.00  0.00    +0.000 C 
ATOM     24  C   UNL     1     -41.705-162.142 315.435  0.00  0.00    +0.000 C 
ENDBRANCH  22  24
ENDBRANCH  19  22
BRANCH  19  25
ATOM     25  C   UNL     1     -40.965-161.952 312.799  0.00  0.00    +0.000 C 
BRANCH  25  26
ATOM     26  C   UNL     1     -39.718-161.260 312.258  0.00  0.00    +0.000 C 
BRANCH  26  27
ATOM     27  O   UNL     1     -39.446-161.935 311.078  0.00  0.00    +0.000 OA
ATOM     28  H   UNL     1     -39.400-162.797 311.525  0.00  0.00    +0.000 HD
ENDBRANCH  26  27
ENDBRANCH  25  26
ENDBRANCH  19  25
ENDBRANCH   1  20
TORSDOF 8
ENDMDL
MODEL 4
REMARK VINA RESULT:    -8.609      2.886      7.120
REMARK INTER + INTRA:         -12.722
REMARK INTER:                 -12.743
REMARK INTRA:                   0.020
REMARK UNBOUND:                -0.339
REMARK  Name = 
REMARK  9 active torsions:
REMARK  status: ('A' for Active; 'I' for Inactive)
REMARK    1  A    between atoms: C_1  and  C_2
REMARK    2  A    between atoms: C_2  and  C_3
REMARK    3  A    between atoms: C_3  and  N_4
REMARK    4  A    between atoms: N_4  and  C_5
REMARK    5  A    between atoms: C_5  and  C_6
REMARK    6  A    between atoms: C_6  and  O_7
REMARK    7  A    between atoms: C_8  and  C_10
REMARK    8  A    between atoms: C_13  and  N_14
REMARK    9  A    between atoms: C_15  and  C_17
REMARK                            x       y       z     vdW  Elec       q    Type
REMARK                         _______ _______ _______ _____ _____    ______ ____
ROOT
ATOM      1  C   UNL     1     -41.862-159.963 309.589  0.00  0.00    +0.000 A 
ATOM      2  C   UNL     1     -42.607-158.838 309.343  0.00  0.00    +0.000 A 
ATOM      3  C   UNL     1     -42.420-158.239 308.102  0.00  0.00    +0.000 A 
ATOM      4  C   UNL     1     -41.250-158.383 307.364  0.00  0.00    +0.000 A 
ATOM      5  C   UNL     1     -40.556-159.531 307.613  0.00  0.00    +0.000 A 
ATOM      6  C   UNL     1     -41.175-160.438 308.467  0.00  0.00    +0.000 A 
ATOM      7 CL   UNL     1     -40.858-162.129 308.245  0.00  0.00    +0.000 Cl
ENDROOT
BRANCH   4   8
ATOM      8  N   UNL     1     -40.842-157.532 306.318  0.00  0.00    +0.000 N 
ATOM      9  C   UNL     1     -41.546-156.535 305.661  0.00  0.00    +0.000 C 
ATOM     10  O   UNL     1     -41.126-156.081 304.597  0.00  0.00    +0.000 OA
ATOM     11  H   UNL     1     -39.929-157.710 305.905  0.00  0.00    +0.000 HD
BRANCH   9  12
ATOM     12  C   UNL     1     -42.859-156.066 306.161  0.00  0.00    +0.000 A 
ATOM     13  C   UNL     1     -44.003-156.751 305.737  0.00  0.00    +0.000 A 
ATOM     14  C   UNL     1     -45.174-156.554 306.453  0.00  0.00    +0.000 A 
ATOM     15  N   UNL     1     -45.251-155.794 307.570  0.00  0.00    +0.000 NA
ATOM     16  C   UNL     1     -44.135-155.116 307.929  0.00  0.00    +0.000 A 
ATOM     17  C   UNL     1     -42.948-155.153 307.213  0.00  0.00    +0.000 A 
ATOM     18  F   UNL     1     -41.856-154.567 307.727  0.00  0.00    +0.000 F 
ENDBRANCH   9  12
ENDBRANCH   4   8
BRANCH   1  20
ATOM     19  N   UNL     1     -41.470-160.652 312.068  0.00  0.00    +0.000 N 
ATOM     20  C   UNL     1     -42.107-160.794 310.791  0.00  0.00    +0.000 C 
ATOM     21  O   UNL     1     -42.952-161.689 310.556  0.00  0.00    +0.000 OA
BRANCH  19  22
ATOM     22  C   UNL     1     -41.933-161.555 313.147  0.00  0.00    +0.000 C 
BRANCH  22  24
ATOM     23  C   UNL     1     -44.058-160.328 313.844  0.00  0.00    +0.000 C 
ATOM     24  C   UNL     1     -42.716-160.879 314.284  0.00  0.00    +0.000 C 
ENDBRANCH  22  24
ENDBRANCH  19  22
BRANCH  19  25
ATOM     25  C   UNL     1     -40.390-159.692 312.525  0.00  0.00    +0.000 C 
BRANCH  25  26
ATOM     26  C   UNL     1     -40.656-158.233 312.168  0.00  0.00    +0.000 C 
BRANCH  26  27
ATOM     27  O   UNL     1     -41.902-157.975 312.721  0.00  0.00    +0.000 OA
ATOM     28  H   UNL     1     -42.133-158.918 312.760  0.00  0.00    +0.000 HD
ENDBRANCH  26  27
ENDBRANCH  25  26
ENDBRANCH  19  25
ENDBRANCH   1  20
TORSDOF 8
ENDMDL
MODEL 5
REMARK VINA RESULT:    -8.486      2.717      7.602
REMARK INTER + INTRA:         -12.545
REMARK INTER:                 -11.789
REMARK INTRA:                  -0.756
REMARK UNBOUND:                -0.339
REMARK  Name = 
REMARK  9 active torsions:
REMARK  status: ('A' for Active; 'I' for Inactive)
REMARK    1  A    between atoms: C_1  and  C_2
REMARK    2  A    between atoms: C_2  and  C_3
REMARK    3  A    between atoms: C_3  and  N_4
REMARK    4  A    between atoms: N_4  and  C_5
REMARK    5  A    between atoms: C_5  and  C_6
REMARK    6  A    between atoms: C_6  and  O_7
REMARK    7  A    between atoms: C_8  and  C_10
REMARK    8  A    between atoms: C_13  and  N_14
REMARK    9  A    between atoms: C_15  and  C_17
REMARK                            x       y       z     vdW  Elec       q    Type
REMARK                         _______ _______ _______ _____ _____    ______ ____
ROOT
ATOM      1  C   UNL     1     -41.195-159.691 308.504  0.00  0.00    +0.000 A 
ATOM      2  C   UNL     1     -41.322-159.116 307.264  0.00  0.00    +0.000 A 
ATOM      3  C   UNL     1     -41.864-157.836 307.237  0.00  0.00    +0.000 A 
ATOM      4  C   UNL     1     -42.698-157.348 308.237  0.00  0.00    +0.000 A 
ATOM      5  C   UNL     1     -42.516-157.920 309.462  0.00  0.00    +0.000 A 
ATOM      6  C   UNL     1     -41.451-158.810 309.560  0.00  0.00    +0.000 A 
ATOM      7 CL   UNL     1     -40.643-158.964 311.087  0.00  0.00    +0.000 Cl
ENDROOT
BRANCH   4   8
ATOM      8  N   UNL     1     -43.567-156.247 308.101  0.00  0.00    +0.000 N 
ATOM      9  C   UNL     1     -44.620-156.052 307.222  0.00  0.00    +0.000 C 
ATOM     10  O   UNL     1     -45.092-154.927 307.063  0.00  0.00    +0.000 OA
ATOM     11  H   UNL     1     -43.360-155.422 308.661  0.00  0.00    +0.000 HD
BRANCH   9  12
ATOM     12  C   UNL     1     -45.132-157.159 306.382  0.00  0.00    +0.000 A 
ATOM     13  C   UNL     1     -45.962-158.109 306.987  0.00  0.00    +0.000 A 
ATOM     14  C   UNL     1     -46.713-158.929 306.159  0.00  0.00    +0.000 A 
ATOM     15  N   UNL     1     -46.739-158.811 304.810  0.00  0.00    +0.000 NA
ATOM     16  C   UNL     1     -45.896-157.907 304.256  0.00  0.00    +0.000 A 
ATOM     17  C   UNL     1     -45.018-157.123 304.991  0.00  0.00    +0.000 A 
ATOM     18  F   UNL     1     -44.331-156.154 304.367  0.00  0.00    +0.000 F 
ENDBRANCH   9  12
ENDBRANCH   4   8
BRANCH   1  20
ATOM     19  N   UNL     1     -40.788-162.013 309.609  0.00  0.00    +0.000 N 
ATOM     20  C   UNL     1     -40.463-160.966 308.682  0.00  0.00    +0.000 C 
ATOM     21  O   UNL     1     -39.470-161.027 307.920  0.00  0.00    +0.000 OA
BRANCH  19  22
ATOM     22  C   UNL     1     -39.952-163.233 309.555  0.00  0.00    +0.000 C 
BRANCH  22  24
ATOM     23  C   UNL     1     -39.954-165.681 308.836  0.00  0.00    +0.000 C 
ATOM     24  C   UNL     1     -40.723-164.562 309.511  0.00  0.00    +0.000 C 
ENDBRANCH  22  24
ENDBRANCH  19  22
BRANCH  19  25
ATOM     25  C   UNL     1     -41.891-162.096 310.645  0.00  0.00    +0.000 C 
BRANCH  25  26
ATOM     26  C   UNL     1     -41.395-162.150 312.086  0.00  0.00    +0.000 C 
BRANCH  26  27
ATOM     27  O   UNL     1     -42.206-161.246 312.754  0.00  0.00    +0.000 OA
ATOM     28  H   UNL     1     -41.699-160.481 312.435  0.00  0.00    +0.000 HD
ENDBRANCH  26  27
ENDBRANCH  25  26
ENDBRANCH  19  25
ENDBRANCH   1  20
TORSDOF 8
ENDMDL
MODEL 6
REMARK VINA RESULT:    -8.443      2.228      3.353
REMARK INTER + INTRA:         -12.484
REMARK INTER:                 -11.885
REMARK INTRA:                  -0.598
REMARK UNBOUND:                -0.339
REMARK  Name = 
REMARK  9 active torsions:
REMARK  status: ('A' for Active; 'I' for Inactive)
REMARK    1  A    between atoms: C_1  and  C_2
REMARK    2  A    between atoms: C_2  and  C_3
REMARK    3  A    between atoms: C_3  and  N_4
REMARK    4  A    between atoms: N_4  and  C_5
REMARK    5  A    between atoms: C_5  and  C_6
REMARK    6  A    between atoms: C_6  and  O_7
REMARK    7  A    between atoms: C_8  and  C_10
REMARK    8  A    between atoms: C_13  and  N_14
REMARK    9  A    between atoms: C_15  and  C_17
REMARK                            x       y       z     vdW  Elec       q    Type
REMARK                         _______ _______ _______ _____ _____    ______ ____
ROOT
ATOM      1  C   UNL     1     -41.862-157.955 307.777  0.00  0.00    +0.000 A 
ATOM      2  C   UNL     1     -40.747-158.713 308.030  0.00  0.00    +0.000 A 
ATOM      3  C   UNL     1     -40.753-159.432 309.221  0.00  0.00    +0.000 A 
ATOM      4  C   UNL     1     -41.513-159.058 310.323  0.00  0.00    +0.000 A 
ATOM      5  C   UNL     1     -42.632-158.335 310.027  0.00  0.00    +0.000 A 
ATOM      6  C   UNL     1     -42.912-158.185 308.672  0.00  0.00    +0.000 A 
ATOM      7 CL   UNL     1     -44.570-158.037 308.184  0.00  0.00    +0.000 Cl
ENDROOT
BRANCH   4   8
ATOM      8  N   UNL     1     -41.290-159.491 311.645  0.00  0.00    +0.000 N 
ATOM      9  C   UNL     1     -41.214-160.777 312.156  0.00  0.00    +0.000 C 
ATOM     10  O   UNL     1     -41.286-160.965 313.369  0.00  0.00    +0.000 OA
ATOM     11  H   UNL     1     -41.264-158.775 312.369  0.00  0.00    +0.000 HD
BRANCH   9  12
ATOM     12  C   UNL     1     -41.148-161.955 311.261  0.00  0.00    +0.000 A 
ATOM     13  C   UNL     1     -42.329-162.365 310.631  0.00  0.00    +0.000 A 
ATOM     14  C   UNL     1     -42.217-163.223 309.547  0.00  0.00    +0.000 A 
ATOM     15  N   UNL     1     -41.032-163.624 309.028  0.00  0.00    +0.000 NA
ATOM     16  C   UNL     1     -39.912-163.239 309.685  0.00  0.00    +0.000 A 
ATOM     17  C   UNL     1     -39.923-162.481 310.846  0.00  0.00    +0.000 A 
ATOM     18  F   UNL     1     -38.761-162.025 311.340  0.00  0.00    +0.000 F 
ENDBRANCH   9  12
ENDBRANCH   4   8
BRANCH   1  20
ATOM     19  N   UNL     1     -42.327-155.907 306.239  0.00  0.00    +0.000 N 
ATOM     20  C   UNL     1     -42.057-157.298 306.464  0.00  0.00    +0.000 C 
ATOM     21  O   UNL     1     -41.980-158.128 305.528  0.00  0.00    +0.000 OA
BRANCH  19  22
ATOM     22  C   UNL     1     -42.410-155.464 304.829  0.00  0.00    +0.000 C 
BRANCH  22  24
ATOM     23  C   UNL     1     -44.807-156.296 304.556  0.00  0.00    +0.000 C 
ATOM     24  C   UNL     1     -43.828-155.164 304.313  0.00  0.00    +0.000 C 
ENDBRANCH  22  24
ENDBRANCH  19  22
BRANCH  19  25
ATOM     25  C   UNL     1     -42.522-154.774 307.227  0.00  0.00    +0.000 C 
BRANCH  25  26
ATOM     26  C   UNL     1     -43.640-155.007 308.237  0.00  0.00    +0.000 C 
BRANCH  26  27
ATOM     27  O   UNL     1     -44.791-154.651 307.550  0.00  0.00    +0.000 OA
ATOM     28  H   UNL     1     -45.252-154.386 308.364  0.00  0.00    +0.000 HD
ENDBRANCH  26  27
ENDBRANCH  25  26
ENDBRANCH  19  25
ENDBRANCH   1  20
TORSDOF 8
ENDMDL
MODEL 7
REMARK VINA RESULT:    -8.431      3.074      7.793
REMARK INTER + INTRA:         -12.467
REMARK INTER:                 -11.529
REMARK INTRA:                  -0.938
REMARK UNBOUND:                -0.339
REMARK  Name = 
REMARK  9 active torsions:
REMARK  status: ('A' for Active; 'I' for Inactive)
REMARK    1  A    between atoms: C_1  and  C_2
REMARK    2  A    between atoms: C_2  and  C_3
REMARK    3  A    between atoms: C_3  and  N_4
REMARK    4  A    between atoms: N_4  and  C_5
REMARK    5  A    between atoms: C_5  and  C_6
REMARK    6  A    between atoms: C_6  and  O_7
REMARK    7  A    between atoms: C_8  and  C_10
REMARK    8  A    between atoms: C_13  and  N_14
REMARK    9  A    between atoms: C_15  and  C_17
REMARK                            x       y       z     vdW  Elec       q    Type
REMARK                         _______ _______ _______ _____ _____    ______ ____
ROOT
ATOM      1  C   UNL     1     -41.651-161.311 309.246  0.00  0.00    +0.000 A 
ATOM      2  C   UNL     1     -41.225-160.471 308.249  0.00  0.00    +0.000 A 
ATOM      3  C   UNL     1     -41.263-159.111 308.538  0.00  0.00    +0.000 A 
ATOM      4  C   UNL     1     -42.120-158.565 309.487  0.00  0.00    +0.000 A 
ATOM      5  C   UNL     1     -42.492-159.423 310.480  0.00  0.00    +0.000 A 
ATOM      6  C   UNL     1     -41.870-160.668 310.468  0.00  0.00    +0.000 A 
ATOM      7 CL   UNL     1     -41.620-161.480 311.980  0.00  0.00    +0.000 Cl
ENDROOT
BRANCH   4   8
ATOM      8  N   UNL     1     -42.483-157.206 309.564  0.00  0.00    +0.000 N 
ATOM      9  C   UNL     1     -43.057-156.386 308.605  0.00  0.00    +0.000 C 
ATOM     10  O   UNL     1     -43.054-155.165 308.755  0.00  0.00    +0.000 OA
ATOM     11  H   UNL     1     -42.218-156.702 310.409  0.00  0.00    +0.000 HD
BRANCH   9  12
ATOM     12  C   UNL     1     -43.590-156.942 307.341  0.00  0.00    +0.000 A 
ATOM     13  C   UNL     1     -44.924-157.367 307.324  0.00  0.00    +0.000 A 
ATOM     14  C   UNL     1     -45.524-157.556 306.088  0.00  0.00    +0.000 A 
ATOM     15  N   UNL     1     -44.914-157.287 304.910  0.00  0.00    +0.000 NA
ATOM     16  C   UNL     1     -43.614-156.915 304.962  0.00  0.00    +0.000 A 
ATOM     17  C   UNL     1     -42.889-156.812 306.141  0.00  0.00    +0.000 A 
ATOM     18  F   UNL     1     -41.652-156.294 306.103  0.00  0.00    +0.000 F 
ENDBRANCH   9  12
ENDBRANCH   4   8
BRANCH   1  20
ATOM     19  N   UNL     1     -40.241-163.485 308.992  0.00  0.00    +0.000 N 
ATOM     20  C   UNL     1     -41.482-162.778 309.131  0.00  0.00    +0.000 C 
ATOM     21  O   UNL     1     -42.591-163.363 309.144  0.00  0.00    +0.000 OA
BRANCH  19  22
ATOM     22  C   UNL     1     -40.315-164.963 308.969  0.00  0.00    +0.000 C 
BRANCH  22  24
ATOM     23  C   UNL     1     -39.185-166.104 306.987  0.00  0.00    +0.000 C 
ATOM     24  C   UNL     1     -39.062-165.680 308.437  0.00  0.00    +0.000 C 
ENDBRANCH  22  24
ENDBRANCH  19  22
BRANCH  19  25
ATOM     25  C   UNL     1     -38.821-162.962 308.888  0.00  0.00    +0.000 C 
BRANCH  25  26
ATOM     26  C   UNL     1     -38.439-162.457 307.501  0.00  0.00    +0.000 C 
BRANCH  26  27
ATOM     27  O   UNL     1     -37.244-163.104 307.226  0.00  0.00    +0.000 OA
ATOM     28  H   UNL     1     -36.727-162.481 307.764  0.00  0.00    +0.000 HD
ENDBRANCH  26  27
ENDBRANCH  25  26
ENDBRANCH  19  25
ENDBRANCH   1  20
TORSDOF 8
ENDMDL
MODEL 8
REMARK VINA RESULT:    -8.244      2.780      7.519
REMARK INTER + INTRA:         -12.197
REMARK INTER:                 -11.826
REMARK INTRA:                  -0.371
REMARK UNBOUND:                -0.339
REMARK  Name = 
REMARK  9 active torsions:
REMARK  status: ('A' for Active; 'I' for Inactive)
REMARK    1  A    between atoms: C_1  and  C_2
REMARK    2  A    between atoms: C_2  and  C_3
REMARK    3  A    between atoms: C_3  and  N_4
REMARK    4  A    between atoms: N_4  and  C_5
REMARK    5  A    between atoms: C_5  and  C_6
REMARK    6  A    between atoms: C_6  and  O_7
REMARK    7  A    between atoms: C_8  and  C_10
REMARK    8  A    between atoms: C_13  and  N_14
REMARK    9  A    between atoms: C_15  and  C_17
REMARK                            x       y       z     vdW  Elec       q    Type
REMARK                         _______ _______ _______ _____ _____    ______ ____
ROOT
ATOM      1  C   UNL     1     -42.482-159.879 311.501  0.00  0.00    +0.000 A 
ATOM      2  C   UNL     1     -42.601-160.870 310.560  0.00  0.00    +0.000 A 
ATOM      3  C   UNL     1     -41.921-160.663 309.365  0.00  0.00    +0.000 A 
ATOM      4  C   UNL     1     -41.589-159.398 308.895  0.00  0.00    +0.000 A 
ATOM      5  C   UNL     1     -41.445-158.448 309.865  0.00  0.00    +0.000 A 
ATOM      6  C   UNL     1     -41.530-158.907 311.175  0.00  0.00    +0.000 A 
ATOM      7 CL   UNL     1     -40.626-158.076 312.400  0.00  0.00    +0.000 Cl
ENDROOT
BRANCH   4   8
ATOM      8  N   UNL     1     -41.258-159.090 307.561  0.00  0.00    +0.000 N 
ATOM      9  C   UNL     1     -41.752-158.096 306.731  0.00  0.00    +0.000 C 
ATOM     10  O   UNL     1     -41.549-158.144 305.519  0.00  0.00    +0.000 OA
ATOM     11  H   UNL     1     -40.628-159.730 307.080  0.00  0.00    +0.000 HD
BRANCH   9  12
ATOM     12  C   UNL     1     -42.615-157.015 307.261  0.00  0.00    +0.000 A 
ATOM     13  C   UNL     1     -42.140-155.701 307.182  0.00  0.00    +0.000 A 
ATOM     14  C   UNL     1     -43.057-154.674 307.345  0.00  0.00    +0.000 A 
ATOM     15  N   UNL     1     -44.387-154.874 307.506  0.00  0.00    +0.000 NA
ATOM     16  C   UNL     1     -44.805-156.157 307.615  0.00  0.00    +0.000 A 
ATOM     17  C   UNL     1     -43.952-157.250 307.585  0.00  0.00    +0.000 A 
ATOM     18  F   UNL     1     -44.475-158.486 307.552  0.00  0.00    +0.000 F 
ENDBRANCH   9  12
ENDBRANCH   4   8
BRANCH   1  20
ATOM     19  N   UNL     1     -42.473-160.956 313.871  0.00  0.00    +0.000 N 
ATOM     20  C   UNL     1     -42.999-160.065 312.876  0.00  0.00    +0.000 C 
ATOM     21  O   UNL     1     -44.007-159.348 313.081  0.00  0.00    +0.000 OA
BRANCH  19  22
ATOM     22  C   UNL     1     -43.114-160.917 315.205  0.00  0.00    +0.000 C 
BRANCH  22  24
ATOM     23  C   UNL     1     -41.813-161.619 317.285  0.00  0.00    +0.000 C 
ATOM     24  C   UNL     1     -42.727-162.060 316.158  0.00  0.00    +0.000 C 
ENDBRANCH  22  24
ENDBRANCH  19  22
BRANCH  19  25
ATOM     25  C   UNL     1     -41.323-161.940 313.796  0.00  0.00    +0.000 C 
BRANCH  25  26
ATOM     26  C   UNL     1     -40.104-161.423 313.039  0.00  0.00    +0.000 C 
BRANCH  26  27
ATOM     27  O   UNL     1     -40.007-162.269 311.944  0.00  0.00    +0.000 OA
ATOM     28  H   UNL     1     -39.133-161.923 311.694  0.00  0.00    +0.000 HD
ENDBRANCH  26  27
ENDBRANCH  25  26
ENDBRANCH  19  25
ENDBRANCH   1  20
TORSDOF 8
ENDMDL
MODEL 9
REMARK VINA RESULT:    -8.201      4.571      7.933
REMARK INTER + INTRA:         -12.136
REMARK INTER:                 -11.855
REMARK INTRA:                  -0.280
REMARK UNBOUND:                -0.339
REMARK  Name = 
REMARK  9 active torsions:
REMARK  status: ('A' for Active; 'I' for Inactive)
REMARK    1  A    between atoms: C_1  and  C_2
REMARK    2  A    between atoms: C_2  and  C_3
REMARK    3  A    between atoms: C_3  and  N_4
REMARK    4  A    between atoms: N_4  and  C_5
REMARK    5  A    between atoms: C_5  and  C_6
REMARK    6  A    between atoms: C_6  and  O_7
REMARK    7  A    between atoms: C_8  and  C_10
REMARK    8  A    between atoms: C_13  and  N_14
REMARK    9  A    between atoms: C_15  and  C_17
REMARK                            x       y       z     vdW  Elec       q    Type
REMARK                         _______ _______ _______ _____ _____    ______ ____
ROOT
ATOM      1  C   UNL     1     -39.786-163.889 308.806  0.00  0.00    +0.000 A 
ATOM      2  C   UNL     1     -40.664-164.733 309.438  0.00  0.00    +0.000 A 
ATOM      3  C   UNL     1     -41.303-164.219 310.561  0.00  0.00    +0.000 A 
ATOM      4  C   UNL     1     -40.770-163.190 311.328  0.00  0.00    +0.000 A 
ATOM      5  C   UNL     1     -39.929-162.353 310.654  0.00  0.00    +0.000 A 
ATOM      6  C   UNL     1     -39.825-162.576 309.285  0.00  0.00    +0.000 A 
ATOM      7 CL   UNL     1     -39.496-161.223 308.251  0.00  0.00    +0.000 Cl
ENDROOT
BRANCH   4   8
ATOM      8  N   UNL     1     -41.149-162.884 312.650  0.00  0.00    +0.000 N 
ATOM      9  C   UNL     1     -41.490-161.666 313.216  0.00  0.00    +0.000 C 
ATOM     10  O   UNL     1     -41.527-161.542 314.439  0.00  0.00    +0.000 OA
ATOM     11  H   UNL     1     -41.087-163.636 313.335  0.00  0.00    +0.000 HD
BRANCH   9  12
ATOM     12  C   UNL     1     -41.715-160.468 312.376  0.00  0.00    +0.000 A 
ATOM     13  C   UNL     1     -40.801-159.413 312.480  0.00  0.00    +0.000 A 
ATOM     14  C   UNL     1     -40.799-158.460 311.473  0.00  0.00    +0.000 A 
ATOM     15  N   UNL     1     -41.580-158.533 310.370  0.00  0.00    +0.000 NA
ATOM     16  C   UNL     1     -42.479-159.545 310.320  0.00  0.00    +0.000 A 
ATOM     17  C   UNL     1     -42.642-160.481 311.332  0.00  0.00    +0.000 A 
ATOM     18  F   UNL     1     -43.453-161.529 311.126  0.00  0.00    +0.000 F 
ENDBRANCH   9  12
ENDBRANCH   4   8
BRANCH   1  20
ATOM     19  N   UNL     1     -37.980-164.994 307.291  0.00  0.00    +0.000 N 
ATOM     20  C   UNL     1     -39.189-164.250 307.499  0.00  0.00    +0.000 C 
ATOM     21  O   UNL     1     -39.870-163.795 306.550  0.00  0.00    +0.000 OA
BRANCH  19  22
ATOM     22  C   UNL     1     -37.618-165.297 305.888  0.00  0.00    +0.000 C 
BRANCH  22  24
ATOM     23  C   UNL     1     -38.816-167.547 305.988  0.00  0.00    +0.000 C 
ATOM     24  C   UNL     1     -38.535-166.301 305.171  0.00  0.00    +0.000 C 
ENDBRANCH  22  24
ENDBRANCH  19  22
BRANCH  19  25
ATOM     25  C   UNL     1     -36.994-165.562 308.292  0.00  0.00    +0.000 C 
BRANCH  25  26
ATOM     26  C   UNL     1     -35.699-166.078 307.674  0.00  0.00    +0.000 C 
BRANCH  26  27
ATOM     27  O   UNL     1     -34.953-166.502 308.763  0.00  0.00    +0.000 OA
ATOM     28  H   UNL     1     -35.699-166.394 309.377  0.00  0.00    +0.000 HD
ENDBRANCH  26  27
ENDBRANCH  25  26
ENDBRANCH  19  25
ENDBRANCH   1  20
TORSDOF 8
ENDMDL
MODEL 10
REMARK VINA RESULT:    -8.052      1.979      2.524
REMARK INTER + INTRA:         -11.921
REMARK INTER:                 -12.133
REMARK INTRA:                   0.211
REMARK UNBOUND:                -0.339
REMARK  Name = 
REMARK  9 active torsions:
REMARK  status: ('A' for Active; 'I' for Inactive)
REMARK    1  A    between atoms: C_1  and  C_2
REMARK    2  A    between atoms: C_2  and  C_3
REMARK    3  A    between atoms: C_3  and  N_4
REMARK    4  A    between atoms: N_4  and  C_5
REMARK    5  A    between atoms: C_5  and  C_6
REMARK    6  A    between atoms: C_6  and  O_7
REMARK    7  A    between atoms: C_8  and  C_10
REMARK    8  A    between atoms: C_13  and  N_14
REMARK    9  A    between atoms: C_15  and  C_17
REMARK                            x       y       z     vdW  Elec       q    Type
REMARK                         _______ _______ _______ _____ _____    ______ ____
ROOT
ATOM      1  C   UNL     1     -41.374-158.388 307.174  0.00  0.00    +0.000 A 
ATOM      2  C   UNL     1     -41.008-159.684 306.912  0.00  0.00    +0.000 A 
ATOM      3  C   UNL     1     -40.954-160.537 308.009  0.00  0.00    +0.000 A 
ATOM      4  C   UNL     1     -40.749-160.085 309.307  0.00  0.00    +0.000 A 
ATOM      5  C   UNL     1     -41.157-158.803 309.536  0.00  0.00    +0.000 A 
ATOM      6  C   UNL     1     -41.823-158.185 308.483  0.00  0.00    +0.000 A 
ATOM      7 CL   UNL     1     -43.026-156.991 308.855  0.00  0.00    +0.000 Cl
ENDROOT
BRANCH   4   8
ATOM      8  N   UNL     1     -40.310-160.882 310.383  0.00  0.00    +0.000 N 
ATOM      9  C   UNL     1     -40.697-160.866 311.714  0.00  0.00    +0.000 C 
ATOM     10  O   UNL     1     -40.018-161.442 312.561  0.00  0.00    +0.000 OA
ATOM     11  H   UNL     1     -39.531-161.514 310.205  0.00  0.00    +0.000 HD
BRANCH   9  12
ATOM     12  C   UNL     1     -41.868-160.078 312.162  0.00  0.00    +0.000 A 
ATOM     13  C   UNL     1     -43.066-160.762 312.396  0.00  0.00    +0.000 A 
ATOM     14  C   UNL     1     -44.045-160.113 313.134  0.00  0.00    +0.000 A 
ATOM     15  N   UNL     1     -43.876-158.891 313.692  0.00  0.00    +0.000 NA
ATOM     16  C   UNL     1     -42.720-158.243 313.413  0.00  0.00    +0.000 A 
ATOM     17  C   UNL     1     -41.730-158.756 312.589  0.00  0.00    +0.000 A 
ATOM     18  F   UNL     1     -40.560-158.106 312.491  0.00  0.00    +0.000 F 
ENDBRANCH   9  12
ENDBRANCH   4   8
BRANCH   1  20
ATOM     19  N   UNL     1     -42.944-157.019 305.613  0.00  0.00    +0.000 N 
ATOM     20  C   UNL     1     -41.650-157.435 306.074  0.00  0.00    +0.000 C 
ATOM     21  O   UNL     1     -40.586-157.031 305.549  0.00  0.00    +0.000 OA
BRANCH  19  22
ATOM     22  C   UNL     1     -42.971-155.996 304.542  0.00  0.00    +0.000 C 
BRANCH  22  24
ATOM     23  C   UNL     1     -44.517-153.985 304.816  0.00  0.00    +0.000 C 
ATOM     24  C   UNL     1     -43.122-154.542 305.021  0.00  0.00    +0.000 C 
ENDBRANCH  22  24
ENDBRANCH  19  22
BRANCH  19  25
ATOM     25  C   UNL     1     -44.328-157.439 306.065  0.00  0.00    +0.000 C 
BRANCH  25  26
ATOM     26  C   UNL     1     -45.381-157.417 304.963  0.00  0.00    +0.000 C 
BRANCH  26  27
ATOM     27  O   UNL     1     -46.516-156.929 305.593  0.00  0.00    +0.000 OA
ATOM     28  H   UNL     1     -46.819-156.467 304.794  0.00  0.00    +0.000 HD
ENDBRANCH  26  27
ENDBRANCH  25  26
ENDBRANCH  19  25
ENDBRANCH   1  20
TORSDOF 8
ENDMDL
