MODEL 1
REMARK VINA RESULT:     0.000      0.000      0.000
REMARK INTER + INTRA:          -2.234
REMARK INTER:                   0.000
REMARK INTRA:                  -2.234
REMARK UNBOUND:                -2.234
REMARK  Name = 
REMARK  10 active torsions:
REMARK  status: ('A' for Active; 'I' for Inactive)
REMARK    1  A    between atoms: C_1  and  C_2
REMARK    2  A    between atoms: C_3  and  C_4
REMARK    3  A    between atoms: C_4  and  C_5
REMARK    4  A    between atoms: C_5  and  C_6
REMARK    5  A    between atoms: C_5  and  C_8
REMARK    6  A    between atoms: C_5  and  N_10
REMARK    7  A    between atoms: C_6  and  C_7
REMARK    8  A    between atoms: C_8  and  C_9
REMARK    9  A    between atoms: C_11  and  C_13
REMARK   10  A    between atoms: C_17  and  N_18
REMARK                            x       y       z     vdW  Elec       q    Type
REMARK                         _______ _______ _______ _____ _____    ______ ____
ROOT
ATOM      1  N   UNL     1     -41.971-301.738  66.110  0.00  0.00    +0.000 N 
ATOM      2  C   UNL     1     -41.920-303.196  66.177  0.00  0.00    +0.000 C 
ATOM      3  O   UNL     1     -40.942-303.714  65.715  0.00  0.00    +0.000 OA
ATOM      4  H   UNL     1     -41.102-301.329  65.757  0.00  0.00    +0.000 HD
ENDROOT
BRANCH   2   5
ATOM      5  C   UNL     1     -43.193-304.111  66.632  0.00  0.00    +0.000 A 
ATOM      6  C   UNL     1     -43.510-304.960  67.632  0.00  0.00    +0.000 A 
ATOM      7  C   UNL     1     -44.885-305.553  67.695  0.00  0.00    +0.000 A 
ATOM      8  C   UNL     1     -46.045-305.123  66.987  0.00  0.00    +0.000 A 
ATOM      9  C   UNL     1     -45.735-304.501  65.855  0.00  0.00    +0.000 A 
ATOM     10  C   UNL     1     -44.087-304.527  65.663  0.00  0.00    +0.000 A 
BRANCH   9  11
ATOM     11  N   UNL     1     -47.047-303.650  65.090  0.00  0.00    +0.000 N 
ATOM     12  C   UNL     1     -47.895-302.479  65.302  0.00  0.00    +0.000 A 
ATOM     13  N   UNL     1     -48.936-302.405  64.513  0.00  0.00    +0.000 NA
ATOM     14  N   UNL     1     -48.823-303.488  63.731  0.00  0.00    +0.000 NA
ATOM     15  N   UNL     1     -47.737-304.231  64.029  0.00  0.00    +0.000 NA
ENDBRANCH   9  11
ENDBRANCH   2   5
BRANCH   1  16
ATOM     16  C   UNL     1     -42.979-300.700  66.582  0.00  0.00    +0.000 C 
BRANCH  16  17
ATOM     17  C   UNL     1     -44.414-300.875  65.926  0.00  0.00    +0.000 C 
ATOM     18  C   UNL     1     -44.369-301.027  64.389  0.00  0.00    +0.000 C 
ENDBRANCH  16  17
BRANCH  16  19
ATOM     19  C   UNL     1     -42.492-299.273  66.204  0.00  0.00    +0.000 C 
ATOM     20  C   UNL     1     -43.424-298.186  66.697  0.00  0.00    +0.000 C 
ENDBRANCH  16  19
BRANCH  16  21
ATOM     21  C   UNL     1     -43.143-300.852  68.090  0.00  0.00    +0.000 C 
BRANCH  21  24
ATOM     22  C   UNL     1     -47.109-302.267  68.975  0.00  0.00    +0.000 C 
ATOM     23  C   UNL     1     -45.715-301.765  68.634  0.00  0.00    +0.000 C 
ATOM     24  C   UNL     1     -44.519-301.336  68.342  0.00  0.00    +0.000 C 
ENDBRANCH  21  24
ENDBRANCH  16  21
ENDBRANCH   1  16
TORSDOF 7
ENDMDL
MODEL 2
REMARK VINA RESULT:     0.000      5.338      6.744
REMARK INTER + INTRA:          -2.234
REMARK INTER:                   0.000
REMARK INTRA:                  -2.234
REMARK UNBOUND:                -2.234
REMARK  Name = 
REMARK  10 active torsions:
REMARK  status: ('A' for Active; 'I' for Inactive)
REMARK    1  A    between atoms: C_1  and  C_2
REMARK    2  A    between atoms: C_3  and  C_4
REMARK    3  A    between atoms: C_4  and  C_5
REMARK    4  A    between atoms: C_5  and  C_6
REMARK    5  A    between atoms: C_5  and  C_8
REMARK    6  A    between atoms: C_5  and  N_10
REMARK    7  A    between atoms: C_6  and  C_7
REMARK    8  A    between atoms: C_8  and  C_9
REMARK    9  A    between atoms: C_11  and  C_13
REMARK   10  A    between atoms: C_17  and  N_18
REMARK                            x       y       z     vdW  Elec       q    Type
REMARK                         _______ _______ _______ _____ _____    ______ ____
ROOT
ATOM      1  N   UNL     1     -41.374-300.504  61.712  0.00  0.00    +0.000 N 
ATOM      2  C   UNL     1     -41.941-301.723  62.284  0.00  0.00    +0.000 C 
ATOM      3  O   UNL     1     -41.172-302.454  62.842  0.00  0.00    +0.000 OA
ATOM      4  H   UNL     1     -40.387-300.379  61.949  0.00  0.00    +0.000 HD
ENDROOT
BRANCH   2   5
ATOM      5  C   UNL     1     -43.474-302.208  62.003  0.00  0.00    +0.000 A 
ATOM      6  C   UNL     1     -44.607-302.408  62.709  0.00  0.00    +0.000 A 
ATOM      7  C   UNL     1     -45.863-302.812  61.998  0.00  0.00    +0.000 A 
ATOM      8  C   UNL     1     -46.124-302.747  60.599  0.00  0.00    +0.000 A 
ATOM      9  C   UNL     1     -45.009-302.809  59.881  0.00  0.00    +0.000 A 
ATOM     10  C   UNL     1     -43.722-303.014  60.908  0.00  0.00    +0.000 A 
BRANCH   9  11
ATOM     11  N   UNL     1     -45.183-302.403  58.197  0.00  0.00    +0.000 N 
ATOM     12  C   UNL     1     -45.462-301.245  57.349  0.00  0.00    +0.000 A 
ATOM     13  N   UNL     1     -45.730-301.533  56.101  0.00  0.00    +0.000 NA
ATOM     14  N   UNL     1     -45.618-302.868  56.048  0.00  0.00    +0.000 NA
ATOM     15  N   UNL     1     -45.295-303.408  57.240  0.00  0.00    +0.000 NA
ENDBRANCH   9  11
ENDBRANCH   2   5
BRANCH   1  16
ATOM     16  C   UNL     1     -41.970-299.320  60.963  0.00  0.00    +0.000 C 
BRANCH  16  17
ATOM     17  C   UNL     1     -42.694-299.731  59.612  0.00  0.00    +0.000 C 
ATOM     18  C   UNL     1     -41.835-300.651  58.714  0.00  0.00    +0.000 C 
ENDBRANCH  16  17
BRANCH  16  19
ATOM     19  C   UNL     1     -40.849-298.316  60.575  0.00  0.00    +0.000 C 
ATOM     20  C   UNL     1     -41.383-297.084  59.876  0.00  0.00    +0.000 C 
ENDBRANCH  16  19
BRANCH  16  21
ATOM     21  C   UNL     1     -43.015-298.670  61.862  0.00  0.00    +0.000 C 
BRANCH  21  24
ATOM     22  C   UNL     1     -46.928-299.224  60.162  0.00  0.00    +0.000 C 
ATOM     23  C   UNL     1     -45.534-299.041  60.739  0.00  0.00    +0.000 C 
ATOM     24  C   UNL     1     -44.339-298.885  61.235  0.00  0.00    +0.000 C 
ENDBRANCH  21  24
ENDBRANCH  16  21
ENDBRANCH   1  16
TORSDOF 7
ENDMDL
MODEL 3
REMARK VINA RESULT:     0.000      7.641     10.460
REMARK INTER + INTRA:          -2.234
REMARK INTER:                   0.000
REMARK INTRA:                  -2.234
REMARK UNBOUND:                -2.234
REMARK  Name = 
REMARK  10 active torsions:
REMARK  status: ('A' for Active; 'I' for Inactive)
REMARK    1  A    between atoms: C_1  and  C_2
REMARK    2  A    between atoms: C_3  and  C_4
REMARK    3  A    between atoms: C_4  and  C_5
REMARK    4  A    between atoms: C_5  and  C_6
REMARK    5  A    between atoms: C_5  and  C_8
REMARK    6  A    between atoms: C_5  and  N_10
REMARK    7  A    between atoms: C_6  and  C_7
REMARK    8  A    between atoms: C_8  and  C_9
REMARK    9  A    between atoms: C_11  and  C_13
REMARK   10  A    between atoms: C_17  and  N_18
REMARK                            x       y       z     vdW  Elec       q    Type
REMARK                         _______ _______ _______ _____ _____    ______ ____
ROOT
ATOM      1  N   UNL     1     -40.796-299.061  56.467  0.00  0.00    +0.000 N 
ATOM      2  C   UNL     1     -40.442-297.932  57.324  0.00  0.00    +0.000 C 
ATOM      3  O   UNL     1     -40.067-296.940  56.764  0.00  0.00    +0.000 OA
ATOM      4  H   UNL     1     -40.770-298.824  55.473  0.00  0.00    +0.000 HD
ENDROOT
BRANCH   2   5
ATOM      5  C   UNL     1     -40.329-298.048  58.947  0.00  0.00    +0.000 A 
ATOM      6  C   UNL     1     -40.945-297.537  60.034  0.00  0.00    +0.000 A 
ATOM      7  C   UNL     1     -40.539-297.996  61.402  0.00  0.00    +0.000 A 
ATOM      8  C   UNL     1     -39.759-299.141  61.735  0.00  0.00    +0.000 A 
ATOM      9  C   UNL     1     -38.952-299.498  60.743  0.00  0.00    +0.000 A 
ATOM     10  C   UNL     1     -39.114-298.409  59.501  0.00  0.00    +0.000 A 
BRANCH   9  11
ATOM     11  N   UNL     1     -38.210-301.064  60.912  0.00  0.00    +0.000 N 
ATOM     12  C   UNL     1     -38.572-302.481  60.901  0.00  0.00    +0.000 A 
ATOM     13  N   UNL     1     -37.638-303.289  61.332  0.00  0.00    +0.000 NA
ATOM     14  N   UNL     1     -36.615-302.472  61.621  0.00  0.00    +0.000 NA
ATOM     15  N   UNL     1     -36.905-301.176  61.385  0.00  0.00    +0.000 NA
ENDBRANCH   9  11
ENDBRANCH   2   5
BRANCH   1  16
ATOM     16  C   UNL     1     -41.327-300.461  56.742  0.00  0.00    +0.000 C 
BRANCH  16  17
ATOM     17  C   UNL     1     -40.361-301.332  57.651  0.00  0.00    +0.000 C 
ATOM     18  C   UNL     1     -38.892-301.320  57.169  0.00  0.00    +0.000 C 
ENDBRANCH  16  17
BRANCH  16  19
ATOM     19  C   UNL     1     -41.496-301.238  55.407  0.00  0.00    +0.000 C 
ATOM     20  C   UNL     1     -42.076-302.622  55.604  0.00  0.00    +0.000 C 
ENDBRANCH  16  19
BRANCH  16  21
ATOM     21  C   UNL     1     -42.654-300.327  57.481  0.00  0.00    +0.000 C 
BRANCH  21  24
ATOM     22  C   UNL     1     -42.224-301.806  61.498  0.00  0.00    +0.000 C 
ATOM     23  C   UNL     1     -42.348-301.292  60.073  0.00  0.00    +0.000 C 
ATOM     24  C   UNL     1     -42.455-300.849  58.851  0.00  0.00    +0.000 C 
ENDBRANCH  21  24
ENDBRANCH  16  21
ENDBRANCH   1  16
TORSDOF 7
ENDMDL
MODEL 4
REMARK VINA RESULT:     0.000      7.688      9.870
REMARK INTER + INTRA:          -2.234
REMARK INTER:                   0.000
REMARK INTRA:                  -2.234
REMARK UNBOUND:                -2.234
REMARK  Name = 
REMARK  10 active torsions:
REMARK  status: ('A' for Active; 'I' for Inactive)
REMARK    1  A    between atoms: C_1  and  C_2
REMARK    2  A    between atoms: C_3  and  C_4
REMARK    3  A    between atoms: C_4  and  C_5
REMARK    4  A    between atoms: C_5  and  C_6
REMARK    5  A    between atoms: C_5  and  C_8
REMARK    6  A    between atoms: C_5  and  N_10
REMARK    7  A    between atoms: C_6  and  C_7
REMARK    8  A    between atoms: C_8  and  C_9
REMARK    9  A    between atoms: C_11  and  C_13
REMARK   10  A    between atoms: C_17  and  N_18
REMARK                            x       y       z     vdW  Elec       q    Type
REMARK                         _______ _______ _______ _____ _____    ______ ____
ROOT
ATOM      1  N   UNL     1     -44.696-301.789  55.307  0.00  0.00    +0.000 N 
ATOM      2  C   UNL     1     -45.931-301.011  55.255  0.00  0.00    +0.000 C 
ATOM      3  O   UNL     1     -45.940-300.083  54.495  0.00  0.00    +0.000 OA
ATOM      4  H   UNL     1     -44.015-301.496  54.603  0.00  0.00    +0.000 HD
ENDROOT
BRANCH   2   5
ATOM      5  C   UNL     1     -47.157-301.216  56.312  0.00  0.00    +0.000 A 
ATOM      6  C   UNL     1     -48.448-301.610  56.285  0.00  0.00    +0.000 A 
ATOM      7  C   UNL     1     -49.217-301.719  57.567  0.00  0.00    +0.000 A 
ATOM      8  C   UNL     1     -48.693-301.739  58.892  0.00  0.00    +0.000 A 
ATOM      9  C   UNL     1     -47.522-301.118  58.973  0.00  0.00    +0.000 A 
ATOM     10  C   UNL     1     -47.148-300.485  57.485  0.00  0.00    +0.000 A 
BRANCH   9  11
ATOM     11  N   UNL     1     -46.644-301.373  60.454  0.00  0.00    +0.000 N 
ATOM     12  C   UNL     1     -45.937-302.436  61.167  0.00  0.00    +0.000 A 
ATOM     13  N   UNL     1     -45.644-302.160  62.412  0.00  0.00    +0.000 NA
ATOM     14  N   UNL     1     -46.107-300.913  62.582  0.00  0.00    +0.000 NA
ATOM     15  N   UNL     1     -46.686-300.420  61.469  0.00  0.00    +0.000 NA
ENDBRANCH   9  11
ENDBRANCH   2   5
BRANCH   1  16
ATOM     16  C   UNL     1     -44.266-303.025  56.085  0.00  0.00    +0.000 C 
BRANCH  16  17
ATOM     17  C   UNL     1     -44.319-302.826  57.659  0.00  0.00    +0.000 C 
ATOM     18  C   UNL     1     -43.621-301.532  58.136  0.00  0.00    +0.000 C 
ENDBRANCH  16  17
BRANCH  16  19
ATOM     19  C   UNL     1     -42.796-303.390  55.736  0.00  0.00    +0.000 C 
ATOM     20  C   UNL     1     -42.323-304.647  56.435  0.00  0.00    +0.000 C 
ENDBRANCH  16  19
BRANCH  16  21
ATOM     21  C   UNL     1     -45.221-304.160  55.735  0.00  0.00    +0.000 C 
BRANCH  21  24
ATOM     22  C   UNL     1     -47.570-305.188  59.189  0.00  0.00    +0.000 C 
ATOM     23  C   UNL     1     -46.725-304.805  57.985  0.00  0.00    +0.000 C 
ATOM     24  C   UNL     1     -46.002-304.477  56.952  0.00  0.00    +0.000 C 
ENDBRANCH  21  24
ENDBRANCH  16  21
ENDBRANCH   1  16
TORSDOF 7
ENDMDL
MODEL 5
REMARK VINA RESULT:     0.000      9.813     12.101
REMARK INTER + INTRA:          -2.234
REMARK INTER:                   0.000
REMARK INTRA:                  -2.234
REMARK UNBOUND:                -2.234
REMARK  Name = 
REMARK  10 active torsions:
REMARK  status: ('A' for Active; 'I' for Inactive)
REMARK    1  A    between atoms: C_1  and  C_2
REMARK    2  A    between atoms: C_3  and  C_4
REMARK    3  A    between atoms: C_4  and  C_5
REMARK    4  A    between atoms: C_5  and  C_6
REMARK    5  A    between atoms: C_5  and  C_8
REMARK    6  A    between atoms: C_5  and  N_10
REMARK    7  A    between atoms: C_6  and  C_7
REMARK    8  A    between atoms: C_8  and  C_9
REMARK    9  A    between atoms: C_11  and  C_13
REMARK   10  A    between atoms: C_17  and  N_18
REMARK                            x       y       z     vdW  Elec       q    Type
REMARK                         _______ _______ _______ _____ _____    ______ ____
ROOT
ATOM      1  N   UNL     1     -44.927-294.589  54.841  0.00  0.00    +0.000 N 
ATOM      2  C   UNL     1     -46.124-295.373  55.136  0.00  0.00    +0.000 C 
ATOM      3  O   UNL     1     -47.109-295.092  54.511  0.00  0.00    +0.000 OA
ATOM      4  H   UNL     1     -45.058-293.951  54.054  0.00  0.00    +0.000 HD
ENDROOT
BRANCH   2   5
ATOM      5  C   UNL     1     -46.220-296.416  56.388  0.00  0.00    +0.000 A 
ATOM      6  C   UNL     1     -46.382-297.742  56.577  0.00  0.00    +0.000 A 
ATOM      7  C   UNL     1     -46.340-298.304  57.966  0.00  0.00    +0.000 A 
ATOM      8  C   UNL     1     -45.858-297.664  59.144  0.00  0.00    +0.000 A 
ATOM      9  C   UNL     1     -45.937-296.341  59.059  0.00  0.00    +0.000 A 
ATOM     10  C   UNL     1     -46.646-295.938  57.614  0.00  0.00    +0.000 A 
BRANCH   9  11
ATOM     11  N   UNL     1     -45.074-295.462  60.289  0.00  0.00    +0.000 N 
ATOM     12  C   UNL     1     -43.702-295.183  60.710  0.00  0.00    +0.000 A 
ATOM     13  N   UNL     1     -43.593-294.635  61.893  0.00  0.00    +0.000 NA
ATOM     14  N   UNL     1     -44.862-294.498  62.302  0.00  0.00    +0.000 NA
ATOM     15  N   UNL     1     -45.750-294.959  61.398  0.00  0.00    +0.000 NA
ENDBRANCH   9  11
ENDBRANCH   2   5
BRANCH   1  16
ATOM     16  C   UNL     1     -43.497-294.623  55.361  0.00  0.00    +0.000 C 
BRANCH  16  17
ATOM     17  C   UNL     1     -43.391-294.373  56.925  0.00  0.00    +0.000 C 
ATOM     18  C   UNL     1     -44.186-293.135  57.402  0.00  0.00    +0.000 C 
ENDBRANCH  16  17
BRANCH  16  19
ATOM     19  C   UNL     1     -42.656-293.508  54.679  0.00  0.00    +0.000 C 
ATOM     20  C   UNL     1     -41.205-293.521  55.111  0.00  0.00    +0.000 C 
ENDBRANCH  16  19
BRANCH  16  21
ATOM     21  C   UNL     1     -42.923-296.006  55.079  0.00  0.00    +0.000 C 
BRANCH  21  24
ATOM     22  C   UNL     1     -42.259-298.079  58.790  0.00  0.00    +0.000 C 
ATOM     23  C   UNL     1     -42.502-297.323  57.494  0.00  0.00    +0.000 C 
ATOM     24  C   UNL     1     -42.711-296.675  56.382  0.00  0.00    +0.000 C 
ENDBRANCH  21  24
ENDBRANCH  16  21
ENDBRANCH   1  16
TORSDOF 7
ENDMDL
MODEL 6
REMARK VINA RESULT:     0.000      5.563      7.652
REMARK INTER + INTRA:          -2.234
REMARK INTER:                   0.000
REMARK INTRA:                  -2.234
REMARK UNBOUND:                -2.234
REMARK  Name = 
REMARK  10 active torsions:
REMARK  status: ('A' for Active; 'I' for Inactive)
REMARK    1  A    between atoms: C_1  and  C_2
REMARK    2  A    between atoms: C_3  and  C_4
REMARK    3  A    between atoms: C_4  and  C_5
REMARK    4  A    between atoms: C_5  and  C_6
REMARK    5  A    between atoms: C_5  and  C_8
REMARK    6  A    between atoms: C_5  and  N_10
REMARK    7  A    between atoms: C_6  and  C_7
REMARK    8  A    between atoms: C_8  and  C_9
REMARK    9  A    between atoms: C_11  and  C_13
REMARK   10  A    between atoms: C_17  and  N_18
REMARK                            x       y       z     vdW  Elec       q    Type
REMARK                         _______ _______ _______ _____ _____    ______ ____
ROOT
ATOM      1  N   UNL     1     -47.473-300.495  68.162  0.00  0.00    +0.000 N 
ATOM      2  C   UNL     1     -47.821-300.199  69.549  0.00  0.00    +0.000 C 
ATOM      3  O   UNL     1     -47.898-301.140  70.289  0.00  0.00    +0.000 OA
ATOM      4  H   UNL     1     -47.239-301.479  68.016  0.00  0.00    +0.000 HD
ENDROOT
BRANCH   2   5
ATOM      5  C   UNL     1     -48.307-298.724  70.050  0.00  0.00    +0.000 A 
ATOM      6  C   UNL     1     -47.873-297.753  70.882  0.00  0.00    +0.000 A 
ATOM      7  C   UNL     1     -48.640-296.471  70.991  0.00  0.00    +0.000 A 
ATOM      8  C   UNL     1     -49.648-295.987  70.107  0.00  0.00    +0.000 A 
ATOM      9  C   UNL     1     -50.262-296.974  69.466  0.00  0.00    +0.000 A 
ATOM     10  C   UNL     1     -49.656-298.422  70.005  0.00  0.00    +0.000 A 
BRANCH   9  11
ATOM     11  N   UNL     1     -51.265-296.485  68.130  0.00  0.00    +0.000 N 
ATOM     12  C   UNL     1     -51.143-295.918  66.788  0.00  0.00    +0.000 A 
ATOM     13  N   UNL     1     -52.267-295.502  66.264  0.00  0.00    +0.000 NA
ATOM     14  N   UNL     1     -53.183-295.790  67.200  0.00  0.00    +0.000 NA
ATOM     15  N   UNL     1     -52.644-296.367  68.293  0.00  0.00    +0.000 NA
ENDBRANCH   9  11
ENDBRANCH   2   5
BRANCH   1  16
ATOM     16  C   UNL     1     -47.249-299.631  66.929  0.00  0.00    +0.000 C 
BRANCH  16  17
ATOM     17  C   UNL     1     -48.519-298.769  66.526  0.00  0.00    +0.000 C 
ATOM     18  C   UNL     1     -49.823-299.596  66.462  0.00  0.00    +0.000 C 
ENDBRANCH  16  17
BRANCH  16  19
ATOM     19  C   UNL     1     -46.917-300.526  65.703  0.00  0.00    +0.000 C 
ATOM     20  C   UNL     1     -46.625-299.724  64.453  0.00  0.00    +0.000 C 
ENDBRANCH  16  19
BRANCH  16  21
ATOM     21  C   UNL     1     -46.114-298.658  67.233  0.00  0.00    +0.000 C 
BRANCH  21  24
ATOM     22  C   UNL     1     -47.653-294.643  67.376  0.00  0.00    +0.000 C 
ATOM     23  C   UNL     1     -47.136-296.072  67.318  0.00  0.00    +0.000 C 
ATOM     24  C   UNL     1     -46.692-297.296  67.269  0.00  0.00    +0.000 C 
ENDBRANCH  21  24
ENDBRANCH  16  21
ENDBRANCH   1  16
TORSDOF 7
ENDMDL
MODEL 7
REMARK VINA RESULT:     0.000      6.156      8.417
REMARK INTER + INTRA:          -2.234
REMARK INTER:                   0.000
REMARK INTRA:                  -2.234
REMARK UNBOUND:                -2.234
REMARK  Name = 
REMARK  10 active torsions:
REMARK  status: ('A' for Active; 'I' for Inactive)
REMARK    1  A    between atoms: C_1  and  C_2
REMARK    2  A    between atoms: C_3  and  C_4
REMARK    3  A    between atoms: C_4  and  C_5
REMARK    4  A    between atoms: C_5  and  C_6
REMARK    5  A    between atoms: C_5  and  C_8
REMARK    6  A    between atoms: C_5  and  N_10
REMARK    7  A    between atoms: C_6  and  C_7
REMARK    8  A    between atoms: C_8  and  C_9
REMARK    9  A    between atoms: C_11  and  C_13
REMARK   10  A    between atoms: C_17  and  N_18
REMARK                            x       y       z     vdW  Elec       q    Type
REMARK                         _______ _______ _______ _____ _____    ______ ____
ROOT
ATOM      1  N   UNL     1     -45.126-295.605  64.305  0.00  0.00    +0.000 N 
ATOM      2  C   UNL     1     -45.591-294.776  63.195  0.00  0.00    +0.000 C 
ATOM      3  O   UNL     1     -45.019-293.734  63.037  0.00  0.00    +0.000 OA
ATOM      4  H   UNL     1     -44.290-295.227  64.756  0.00  0.00    +0.000 HD
ENDROOT
BRANCH   2   5
ATOM      5  C   UNL     1     -46.945-295.104  62.347  0.00  0.00    +0.000 A 
ATOM      6  C   UNL     1     -47.281-295.431  61.081  0.00  0.00    +0.000 A 
ATOM      7  C   UNL     1     -48.713-295.721  60.744  0.00  0.00    +0.000 A 
ATOM      8  C   UNL     1     -49.778-295.987  61.651  0.00  0.00    +0.000 A 
ATOM      9  C   UNL     1     -49.565-295.440  62.842  0.00  0.00    +0.000 A 
ATOM     10  C   UNL     1     -48.146-294.581  62.792  0.00  0.00    +0.000 A 
BRANCH   9  11
ATOM     11  N   UNL     1     -50.629-295.979  64.111  0.00  0.00    +0.000 N 
ATOM     12  C   UNL     1     -50.912-297.176  64.900  0.00  0.00    +0.000 A 
ATOM     13  N   UNL     1     -52.021-297.126  65.593  0.00  0.00    +0.000 NA
ATOM     14  N   UNL     1     -52.510-295.907  65.328  0.00  0.00    +0.000 NA
ATOM     15  N   UNL     1     -51.729-295.208  64.479  0.00  0.00    +0.000 NA
ENDBRANCH   9  11
ENDBRANCH   2   5
BRANCH   1  16
ATOM     16  C   UNL     1     -45.534-296.972  64.837  0.00  0.00    +0.000 C 
BRANCH  16  17
ATOM     17  C   UNL     1     -47.051-297.039  65.297  0.00  0.00    +0.000 C 
ATOM     18  C   UNL     1     -47.460-295.875  66.229  0.00  0.00    +0.000 C 
ENDBRANCH  16  17
BRANCH  16  19
ATOM     19  C   UNL     1     -44.679-297.336  66.082  0.00  0.00    +0.000 C 
ATOM     20  C   UNL     1     -44.995-298.712  66.628  0.00  0.00    +0.000 C 
ENDBRANCH  16  19
BRANCH  16  21
ATOM     21  C   UNL     1     -45.350-297.989  63.717  0.00  0.00    +0.000 C 
BRANCH  21  24
ATOM     22  C   UNL     1     -49.190-299.482  62.477  0.00  0.00    +0.000 C 
ATOM     23  C   UNL     1     -47.847-298.939  62.936  0.00  0.00    +0.000 C 
ATOM     24  C   UNL     1     -46.694-298.473  63.328  0.00  0.00    +0.000 C 
ENDBRANCH  21  24
ENDBRANCH  16  21
ENDBRANCH   1  16
TORSDOF 7
ENDMDL
MODEL 8
REMARK VINA RESULT:     0.002      3.772      6.444
REMARK INTER + INTRA:          -2.232
REMARK INTER:                   0.000
REMARK INTRA:                  -2.232
REMARK UNBOUND:                -2.234
REMARK  Name = 
REMARK  10 active torsions:
REMARK  status: ('A' for Active; 'I' for Inactive)
REMARK    1  A    between atoms: C_1  and  C_2
REMARK    2  A    between atoms: C_3  and  C_4
REMARK    3  A    between atoms: C_4  and  C_5
REMARK    4  A    between atoms: C_5  and  C_6
REMARK    5  A    between atoms: C_5  and  C_8
REMARK    6  A    between atoms: C_5  and  N_10
REMARK    7  A    between atoms: C_6  and  C_7
REMARK    8  A    between atoms: C_8  and  C_9
REMARK    9  A    between atoms: C_11  and  C_13
REMARK   10  A    between atoms: C_17  and  N_18
REMARK                            x       y       z     vdW  Elec       q    Type
REMARK                         _______ _______ _______ _____ _____    ______ ____
ROOT
ATOM      1  N   UNL     1     -48.159-308.182  67.109  0.00  0.00    +0.000 N 
ATOM      2  C   UNL     1     -46.980-308.218  67.971  0.00  0.00    +0.000 C 
ATOM      3  O   UNL     1     -46.969-309.069  68.817  0.00  0.00    +0.000 OA
ATOM      4  H   UNL     1     -48.796-308.965  67.278  0.00  0.00    +0.000 HD
ENDROOT
BRANCH   2   5
ATOM      5  C   UNL     1     -45.838-307.053  67.965  0.00  0.00    +0.000 A 
ATOM      6  C   UNL     1     -44.526-306.937  67.671  0.00  0.00    +0.000 A 
ATOM      7  C   UNL     1     -43.864-305.594  67.749  0.00  0.00    +0.000 A 
ATOM      8  C   UNL     1     -44.497-304.320  67.819  0.00  0.00    +0.000 A 
ATOM      9  C   UNL     1     -45.710-304.397  68.353  0.00  0.00    +0.000 A 
ATOM     10  C   UNL     1     -45.998-305.967  68.806  0.00  0.00    +0.000 A 
BRANCH   9  11
ATOM     11  N   UNL     1     -46.693-302.970  68.179  0.00  0.00    +0.000 N 
ATOM     12  C   UNL     1     -47.385-302.208  67.141  0.00  0.00    +0.000 A 
ATOM     13  N   UNL     1     -47.802-301.026  67.515  0.00  0.00    +0.000 NA
ATOM     14  N   UNL     1     -47.441-300.951  68.804  0.00  0.00    +0.000 NA
ATOM     15  N   UNL     1     -46.803-302.061  69.229  0.00  0.00    +0.000 NA
ENDBRANCH   9  11
ENDBRANCH   2   5
BRANCH   1  16
ATOM     16  C   UNL     1     -48.569-307.315  65.927  0.00  0.00    +0.000 C 
BRANCH  16  17
ATOM     17  C   UNL     1     -48.665-305.772  66.284  0.00  0.00    +0.000 C 
ATOM     18  C   UNL     1     -49.489-305.489  67.561  0.00  0.00    +0.000 C 
ENDBRANCH  16  17
BRANCH  16  19
ATOM     19  C   UNL     1     -49.975-307.738  65.418  0.00  0.00    +0.000 C 
ATOM     20  C   UNL     1     -50.419-306.952  64.202  0.00  0.00    +0.000 C 
ENDBRANCH  16  19
BRANCH  16  21
ATOM     21  C   UNL     1     -47.512-307.468  64.839  0.00  0.00    +0.000 C 
BRANCH  21  24
ATOM     22  C   UNL     1     -45.403-303.752  64.340  0.00  0.00    +0.000 C 
ATOM     23  C   UNL     1     -46.166-305.052  64.536  0.00  0.00    +0.000 C 
ATOM     24  C   UNL     1     -46.819-306.168  64.705  0.00  0.00    +0.000 C 
ENDBRANCH  21  24
ENDBRANCH  16  21
ENDBRANCH   1  16
TORSDOF 7
ENDMDL
MODEL 9
REMARK VINA RESULT:     0.002      9.578     11.488
REMARK INTER + INTRA:          -2.232
REMARK INTER:                   0.000
REMARK INTRA:                  -2.232
REMARK UNBOUND:                -2.234
REMARK  Name = 
REMARK  10 active torsions:
REMARK  status: ('A' for Active; 'I' for Inactive)
REMARK    1  A    between atoms: C_1  and  C_2
REMARK    2  A    between atoms: C_3  and  C_4
REMARK    3  A    between atoms: C_4  and  C_5
REMARK    4  A    between atoms: C_5  and  C_6
REMARK    5  A    between atoms: C_5  and  C_8
REMARK    6  A    between atoms: C_5  and  N_10
REMARK    7  A    between atoms: C_6  and  C_7
REMARK    8  A    between atoms: C_8  and  C_9
REMARK    9  A    between atoms: C_11  and  C_13
REMARK   10  A    between atoms: C_17  and  N_18
REMARK                            x       y       z     vdW  Elec       q    Type
REMARK                         _______ _______ _______ _____ _____    ______ ____
ROOT
ATOM      1  N   UNL     1     -39.734-292.807  63.225  0.00  0.00    +0.000 N 
ATOM      2  C   UNL     1     -38.310-292.842  63.547  0.00  0.00    +0.000 C 
ATOM      3  O   UNL     1     -37.815-291.799  63.872  0.00  0.00    +0.000 OA
ATOM      4  H   UNL     1     -40.159-291.896  63.414  0.00  0.00    +0.000 HD
ENDROOT
BRANCH   2   5
ATOM      5  C   UNL     1     -37.368-294.146  63.275  0.00  0.00    +0.000 A 
ATOM      6  C   UNL     1     -36.647-295.031  63.996  0.00  0.00    +0.000 A 
ATOM      7  C   UNL     1     -35.957-296.167  63.302  0.00  0.00    +0.000 A 
ATOM      8  C   UNL     1     -36.182-296.635  61.976  0.00  0.00    +0.000 A 
ATOM      9  C   UNL     1     -36.659-295.681  61.185  0.00  0.00    +0.000 A 
ATOM     10  C   UNL     1     -36.743-294.264  62.046  0.00  0.00    +0.000 A 
BRANCH   9  11
ATOM     11  N   UNL     1     -37.280-296.223  59.652  0.00  0.00    +0.000 N 
ATOM     12  C   UNL     1     -38.395-296.996  59.106  0.00  0.00    +0.000 A 
ATOM     13  N   UNL     1     -38.267-297.329  57.848  0.00  0.00    +0.000 NA
ATOM     14  N   UNL     1     -37.096-296.783  57.489  0.00  0.00    +0.000 NA
ATOM     15  N   UNL     1     -36.497-296.127  58.504  0.00  0.00    +0.000 NA
ENDBRANCH   9  11
ENDBRANCH   2   5
BRANCH   1  16
ATOM     16  C   UNL     1     -40.742-293.868  62.805  0.00  0.00    +0.000 C 
BRANCH  16  17
ATOM     17  C   UNL     1     -40.356-294.600  61.450  0.00  0.00    +0.000 C 
ATOM     18  C   UNL     1     -39.989-293.622  60.310  0.00  0.00    +0.000 C 
ENDBRANCH  16  17
BRANCH  16  19
ATOM     19  C   UNL     1     -42.135-293.219  62.574  0.00  0.00    +0.000 C 
ATOM     20  C   UNL     1     -43.200-294.231  62.209  0.00  0.00    +0.000 C 
ENDBRANCH  16  19
BRANCH  16  21
ATOM     21  C   UNL     1     -40.795-294.929  63.899  0.00  0.00    +0.000 C 
BRANCH  21  24
ATOM     22  C   UNL     1     -39.197-298.631  62.398  0.00  0.00    +0.000 C 
ATOM     23  C   UNL     1     -39.758-297.311  62.902  0.00  0.00    +0.000 C 
ATOM     24  C   UNL     1     -40.238-296.179  63.334  0.00  0.00    +0.000 C 
ENDBRANCH  21  24
ENDBRANCH  16  21
ENDBRANCH   1  16
TORSDOF 7
ENDMDL
MODEL 10
REMARK VINA RESULT:     0.002      6.446      8.429
REMARK INTER + INTRA:          -2.231
REMARK INTER:                   0.000
REMARK INTRA:                  -2.231
REMARK UNBOUND:                -2.234
REMARK  Name = 
REMARK  10 active torsions:
REMARK  status: ('A' for Active; 'I' for Inactive)
REMARK    1  A    between atoms: C_1  and  C_2
REMARK    2  A    between atoms: C_3  and  C_4
REMARK    3  A    between atoms: C_4  and  C_5
REMARK    4  A    between atoms: C_5  and  C_6
REMARK    5  A    between atoms: C_5  and  C_8
REMARK    6  A    between atoms: C_5  and  N_10
REMARK    7  A    between atoms: C_6  and  C_7
REMARK    8  A    between atoms: C_8  and  C_9
REMARK    9  A    between atoms: C_11  and  C_13
REMARK   10  A    between atoms: C_17  and  N_18
REMARK                            x       y       z     vdW  Elec       q    Type
REMARK                         _______ _______ _______ _____ _____    ______ ____
ROOT
ATOM      1  N   UNL     1     -46.882-298.709  63.178  0.00  0.00    +0.000 N 
ATOM      2  C   UNL     1     -48.000-299.073  64.045  0.00  0.00    +0.000 C 
ATOM      3  O   UNL     1     -48.501-300.144  63.841  0.00  0.00    +0.000 OA
ATOM      4  H   UNL     1     -46.600-299.470  62.557  0.00  0.00    +0.000 HD
ENDROOT
BRANCH   2   5
ATOM      5  C   UNL     1     -48.701-298.026  65.081  0.00  0.00    +0.000 A 
ATOM      6  C   UNL     1     -48.865-297.893  66.415  0.00  0.00    +0.000 A 
ATOM      7  C   UNL     1     -49.552-296.678  66.960  0.00  0.00    +0.000 A 
ATOM      8  C   UNL     1     -49.826-295.458  66.277  0.00  0.00    +0.000 A 
ATOM      9  C   UNL     1     -49.920-295.634  64.964  0.00  0.00    +0.000 A 
ATOM     10  C   UNL     1     -49.752-297.250  64.626  0.00  0.00    +0.000 A 
BRANCH   9  11
ATOM     11  N   UNL     1     -49.916-294.175  64.014  0.00  0.00    +0.000 N 
ATOM     12  C   UNL     1     -49.013-293.091  63.633  0.00  0.00    +0.000 A 
ATOM     13  N   UNL     1     -49.595-292.064  63.068  0.00  0.00    +0.000 NA
ATOM     14  N   UNL     1     -50.888-292.416  63.020  0.00  0.00    +0.000 NA
ATOM     15  N   UNL     1     -51.114-293.634  63.552  0.00  0.00    +0.000 NA
ENDBRANCH   9  11
ENDBRANCH   2   5
BRANCH   1  16
ATOM     16  C   UNL     1     -45.965-297.496  63.103  0.00  0.00    +0.000 C 
BRANCH  16  17
ATOM     17  C   UNL     1     -46.741-296.138  62.833  0.00  0.00    +0.000 C 
ATOM     18  C   UNL     1     -47.735-296.225  61.653  0.00  0.00    +0.000 C 
ENDBRANCH  16  17
BRANCH  16  19
ATOM     19  C   UNL     1     -44.953-297.665  61.935  0.00  0.00    +0.000 C 
ATOM     20  C   UNL     1     -43.972-296.516  61.840  0.00  0.00    +0.000 C 
ENDBRANCH  16  19
BRANCH  16  21
ATOM     21  C   UNL     1     -45.253-297.358  64.443  0.00  0.00    +0.000 C 
BRANCH  21  24
ATOM     22  C   UNL     1     -46.596-293.787  66.431  0.00  0.00    +0.000 C 
ATOM     23  C   UNL     1     -46.138-295.041  65.705  0.00  0.00    +0.000 C 
ATOM     24  C   UNL     1     -45.746-296.118  65.084  0.00  0.00    +0.000 C 
ENDBRANCH  21  24
ENDBRANCH  16  21
ENDBRANCH   1  16
TORSDOF 7
ENDMDL
