MODEL 1
REMARK VINA RESULT:    -9.135      0.000      0.000
REMARK INTER + INTRA:         -12.808
REMARK INTER:                 -12.339
REMARK INTRA:                  -0.469
REMARK UNBOUND:                -0.469
REMARK  Name = 
REMARK  7 active torsions:
REMARK  status: ('A' for Active; 'I' for Inactive)
REMARK    1  A    between atoms: C_1  and  C_2
REMARK    2  A    between atoms: C_2  and  O_3
REMARK    3  A    between atoms: O_3  and  C_4
REMARK    4  A    between atoms: C_9  and  N_10
REMARK    5  A    between atoms: N_10  and  C_11
REMARK    6  A    between atoms: C_11  and  C_12
REMARK    7  A    between atoms: C_12  and  C_14
REMARK                            x       y       z     vdW  Elec       q    Type
REMARK                         _______ _______ _______ _____ _____    ______ ____
ROOT
ATOM      1  N   UNL     1     -43.388-158.013 308.339  0.00  0.00    +0.000 N 
ATOM      2  H   UNL     1     -43.938-158.810 308.045  0.00  0.00    +0.000 HD
ENDROOT
BRANCH   1   8
ATOM      3  C   UNL     1     -44.736-156.758 306.739  0.00  0.00    +0.000 A 
ATOM      4  C   UNL     1     -44.812-155.643 305.884  0.00  0.00    +0.000 A 
ATOM      5  C   UNL     1     -43.777-154.692 305.853  0.00  0.00    +0.000 A 
ATOM      6  C   UNL     1     -42.722-154.774 306.751  0.00  0.00    +0.000 A 
ATOM      7  C   UNL     1     -42.653-155.855 307.614  0.00  0.00    +0.000 A 
ATOM      8  C   UNL     1     -43.585-156.898 307.557  0.00  0.00    +0.000 A 
BRANCH   3   9
ATOM      9  O   UNL     1     -45.700-157.740 306.587  0.00  0.00    +0.000 OA
BRANCH   9  11
ATOM     10  C   UNL     1     -47.271-159.204 305.248  0.00  0.00    +0.000 C 
ATOM     11  C   UNL     1     -46.358-157.987 305.318  0.00  0.00    +0.000 C 
ENDBRANCH   9  11
ENDBRANCH   3   9
ENDBRANCH   1   8
BRANCH   1  12
ATOM     12  C   UNL     1     -42.457-158.177 309.442  0.00  0.00    +0.000 C 
BRANCH  12  13
ATOM     13  C   UNL     1     -41.397-159.294 309.342  0.00  0.00    +0.000 C 
ATOM     14  O   UNL     1     -40.705-159.392 308.334  0.00  0.00    +0.000 OA
BRANCH  13  15
ATOM     15  C   UNL     1     -41.055-160.226 310.468  0.00  0.00    +0.000 A 
ATOM     16  C   UNL     1     -41.293-161.599 310.306  0.00  0.00    +0.000 A 
ATOM     17  C   UNL     1     -41.260-162.449 311.420  0.00  0.00    +0.000 A 
ATOM     18  F   UNL     1     -41.590-163.738 311.278  0.00  0.00    +0.000 F 
ATOM     19  C   UNL     1     -40.947-161.980 312.691  0.00  0.00    +0.000 A 
ATOM     20  C   UNL     1     -40.677-160.637 312.852  0.00  0.00    +0.000 A 
ATOM     21  C   UNL     1     -40.731-159.795 311.750  0.00  0.00    +0.000 A 
ATOM     22  F   UNL     1     -40.525-158.526 312.042  0.00  0.00    +0.000 F 
ENDBRANCH  13  15
ENDBRANCH  12  13
ENDBRANCH   1  12
TORSDOF 6
ENDMDL
MODEL 2
REMARK VINA RESULT:    -8.998      1.447      2.428
REMARK INTER + INTRA:         -12.623
REMARK INTER:                 -12.117
REMARK INTRA:                  -0.506
REMARK UNBOUND:                -0.469
REMARK  Name = 
REMARK  7 active torsions:
REMARK  status: ('A' for Active; 'I' for Inactive)
REMARK    1  A    between atoms: C_1  and  C_2
REMARK    2  A    between atoms: C_2  and  O_3
REMARK    3  A    between atoms: O_3  and  C_4
REMARK    4  A    between atoms: C_9  and  N_10
REMARK    5  A    between atoms: N_10  and  C_11
REMARK    6  A    between atoms: C_11  and  C_12
REMARK    7  A    between atoms: C_12  and  C_14
REMARK                            x       y       z     vdW  Elec       q    Type
REMARK                         _______ _______ _______ _____ _____    ______ ____
ROOT
ATOM      1  N   UNL     1     -42.968-157.671 307.135  0.00  0.00    +0.000 N 
ATOM      2  H   UNL     1     -43.663-158.283 307.544  0.00  0.00    +0.000 HD
ENDROOT
BRANCH   1   8
ATOM      3  C   UNL     1     -44.897-156.527 306.172  0.00  0.00    +0.000 A 
ATOM      4  C   UNL     1     -45.357-155.441 305.406  0.00  0.00    +0.000 A 
ATOM      5  C   UNL     1     -44.469-154.441 304.973  0.00  0.00    +0.000 A 
ATOM      6  C   UNL     1     -43.146-154.447 305.396  0.00  0.00    +0.000 A 
ATOM      7  C   UNL     1     -42.690-155.501 306.170  0.00  0.00    +0.000 A 
ATOM      8  C   UNL     1     -43.513-156.589 306.483  0.00  0.00    +0.000 A 
BRANCH   3   9
ATOM      9  O   UNL     1     -45.788-157.560 306.409  0.00  0.00    +0.000 OA
BRANCH   9  11
ATOM     10  C   UNL     1     -47.348-159.422 305.699  0.00  0.00    +0.000 C 
ATOM     11  C   UNL     1     -46.583-158.152 305.350  0.00  0.00    +0.000 C 
ENDBRANCH   9  11
ENDBRANCH   3   9
ENDBRANCH   1   8
BRANCH   1  12
ATOM     12  C   UNL     1     -41.568-158.049 307.224  0.00  0.00    +0.000 C 
BRANCH  12  13
ATOM     13  C   UNL     1     -41.190-159.237 308.133  0.00  0.00    +0.000 C 
ATOM     14  O   UNL     1     -40.224-159.938 307.854  0.00  0.00    +0.000 OA
BRANCH  13  15
ATOM     15  C   UNL     1     -41.866-159.538 309.440  0.00  0.00    +0.000 A 
ATOM     16  C   UNL     1     -41.969-158.519 310.399  0.00  0.00    +0.000 A 
ATOM     17  C   UNL     1     -42.324-158.835 311.717  0.00  0.00    +0.000 A 
ATOM     18  F   UNL     1     -42.320-157.876 312.651  0.00  0.00    +0.000 F 
ATOM     19  C   UNL     1     -42.629-160.135 312.103  0.00  0.00    +0.000 A 
ATOM     20  C   UNL     1     -42.563-161.138 311.158  0.00  0.00    +0.000 A 
ATOM     21  C   UNL     1     -42.192-160.824 309.858  0.00  0.00    +0.000 A 
ATOM     22  F   UNL     1     -42.095-161.874 309.066  0.00  0.00    +0.000 F 
ENDBRANCH  13  15
ENDBRANCH  12  13
ENDBRANCH   1  12
TORSDOF 6
ENDMDL
MODEL 3
REMARK VINA RESULT:    -8.985      2.867      7.510
REMARK INTER + INTRA:         -12.605
REMARK INTER:                 -12.191
REMARK INTRA:                  -0.414
REMARK UNBOUND:                -0.469
REMARK  Name = 
REMARK  7 active torsions:
REMARK  status: ('A' for Active; 'I' for Inactive)
REMARK    1  A    between atoms: C_1  and  C_2
REMARK    2  A    between atoms: C_2  and  O_3
REMARK    3  A    between atoms: O_3  and  C_4
REMARK    4  A    between atoms: C_9  and  N_10
REMARK    5  A    between atoms: N_10  and  C_11
REMARK    6  A    between atoms: C_11  and  C_12
REMARK    7  A    between atoms: C_12  and  C_14
REMARK                            x       y       z     vdW  Elec       q    Type
REMARK                         _______ _______ _______ _____ _____    ______ ____
ROOT
ATOM      1  N   UNL     1     -40.601-160.274 308.894  0.00  0.00    +0.000 N 
ATOM      2  H   UNL     1     -39.745-160.356 308.359  0.00  0.00    +0.000 HD
ENDROOT
BRANCH   1   8
ATOM      3  C   UNL     1     -40.761-161.473 311.014  0.00  0.00    +0.000 A 
ATOM      4  C   UNL     1     -40.990-162.704 311.653  0.00  0.00    +0.000 A 
ATOM      5  C   UNL     1     -41.367-163.838 310.911  0.00  0.00    +0.000 A 
ATOM      6  C   UNL     1     -41.634-163.730 309.554  0.00  0.00    +0.000 A 
ATOM      7  C   UNL     1     -41.435-162.515 308.921  0.00  0.00    +0.000 A 
ATOM      8  C   UNL     1     -40.909-161.412 309.603  0.00  0.00    +0.000 A 
BRANCH   3   9
ATOM      9  O   UNL     1     -40.223-160.451 311.778  0.00  0.00    +0.000 OA
BRANCH   9  11
ATOM     10  C   UNL     1     -41.091-158.133 312.302  0.00  0.00    +0.000 C 
ATOM     11  C   UNL     1     -41.041-159.618 312.638  0.00  0.00    +0.000 C 
ENDBRANCH   9  11
ENDBRANCH   3   9
ENDBRANCH   1   8
BRANCH   1  12
ATOM     12  C   UNL     1     -41.381-159.054 308.779  0.00  0.00    +0.000 C 
BRANCH  12  13
ATOM     13  C   UNL     1     -41.526-158.411 307.383  0.00  0.00    +0.000 C 
ATOM     14  O   UNL     1     -40.925-158.886 306.426  0.00  0.00    +0.000 OA
BRANCH  13  15
ATOM     15  C   UNL     1     -42.471-157.286 307.075  0.00  0.00    +0.000 A 
ATOM     16  C   UNL     1     -42.752-156.988 305.733  0.00  0.00    +0.000 A 
ATOM     17  C   UNL     1     -43.387-155.781 305.405  0.00  0.00    +0.000 A 
ATOM     18  F   UNL     1     -43.560-155.454 304.119  0.00  0.00    +0.000 F 
ATOM     19  C   UNL     1     -43.798-154.880 306.381  0.00  0.00    +0.000 A 
ATOM     20  C   UNL     1     -43.556-155.183 307.705  0.00  0.00    +0.000 A 
ATOM     21  C   UNL     1     -42.909-156.369 308.024  0.00  0.00    +0.000 A 
ATOM     22  F   UNL     1     -42.670-156.512 309.313  0.00  0.00    +0.000 F 
ENDBRANCH  13  15
ENDBRANCH  12  13
ENDBRANCH   1  12
TORSDOF 6
ENDMDL
MODEL 4
REMARK VINA RESULT:    -8.716      3.294      7.537
REMARK INTER + INTRA:         -12.243
REMARK INTER:                 -11.934
REMARK INTRA:                  -0.308
REMARK UNBOUND:                -0.469
REMARK  Name = 
REMARK  7 active torsions:
REMARK  status: ('A' for Active; 'I' for Inactive)
REMARK    1  A    between atoms: C_1  and  C_2
REMARK    2  A    between atoms: C_2  and  O_3
REMARK    3  A    between atoms: O_3  and  C_4
REMARK    4  A    between atoms: C_9  and  N_10
REMARK    5  A    between atoms: N_10  and  C_11
REMARK    6  A    between atoms: C_11  and  C_12
REMARK    7  A    between atoms: C_12  and  C_14
REMARK                            x       y       z     vdW  Elec       q    Type
REMARK                         _______ _______ _______ _____ _____    ______ ____
ROOT
ATOM      1  N   UNL     1     -41.022-159.373 309.708  0.00  0.00    +0.000 N 
ATOM      2  H   UNL     1     -40.146-158.896 309.883  0.00  0.00    +0.000 HD
ENDROOT
BRANCH   1   8
ATOM      3  C   UNL     1     -41.345-160.909 311.576  0.00  0.00    +0.000 A 
ATOM      4  C   UNL     1     -41.249-162.233 312.039  0.00  0.00    +0.000 A 
ATOM      5  C   UNL     1     -40.883-163.273 311.166  0.00  0.00    +0.000 A 
ATOM      6  C   UNL     1     -40.728-163.027 309.809  0.00  0.00    +0.000 A 
ATOM      7  C   UNL     1     -40.846-161.729 309.341  0.00  0.00    +0.000 A 
ATOM      8  C   UNL     1     -41.053-160.653 310.211  0.00  0.00    +0.000 A 
BRANCH   3   9
ATOM      9  O   UNL     1     -41.534-159.917 312.524  0.00  0.00    +0.000 OA
BRANCH   9  11
ATOM     10  C   UNL     1     -43.840-160.121 313.547  0.00  0.00    +0.000 C 
ATOM     11  C   UNL     1     -42.830-159.304 312.752  0.00  0.00    +0.000 C 
ENDBRANCH   9  11
ENDBRANCH   3   9
ENDBRANCH   1   8
BRANCH   1  12
ATOM     12  C   UNL     1     -42.038-158.698 308.920  0.00  0.00    +0.000 C 
BRANCH  12  13
ATOM     13  C   UNL     1     -41.668-158.237 307.494  0.00  0.00    +0.000 C 
ATOM     14  O   UNL     1     -40.893-158.903 306.818  0.00  0.00    +0.000 OA
BRANCH  13  15
ATOM     15  C   UNL     1     -42.298-157.060 306.806  0.00  0.00    +0.000 A 
ATOM     16  C   UNL     1     -43.108-156.193 307.554  0.00  0.00    +0.000 A 
ATOM     17  C   UNL     1     -43.933-155.269 306.897  0.00  0.00    +0.000 A 
ATOM     18  F   UNL     1     -44.780-154.516 307.609  0.00  0.00    +0.000 F 
ATOM     19  C   UNL     1     -43.940-155.148 305.512  0.00  0.00    +0.000 A 
ATOM     20  C   UNL     1     -43.120-155.973 304.772  0.00  0.00    +0.000 A 
ATOM     21  C   UNL     1     -42.320-156.901 305.425  0.00  0.00    +0.000 A 
ATOM     22  F   UNL     1     -41.637-157.679 304.608  0.00  0.00    +0.000 F 
ENDBRANCH  13  15
ENDBRANCH  12  13
ENDBRANCH   1  12
TORSDOF 6
ENDMDL
