MODEL 1
REMARK VINA RESULT:    -8.711      0.000      0.000
REMARK INTER + INTRA:         -12.031
REMARK INTER:                 -11.766
REMARK INTRA:                  -0.265
REMARK UNBOUND:                -0.265
REMARK  Name = 
REMARK  7 active torsions:
REMARK  status: ('A' for Active; 'I' for Inactive)
REMARK    1  A    between atoms: C_1  and  C_2
REMARK    2  A    between atoms: C_2  and  O_3
REMARK    3  A    between atoms: O_3  and  C_4
REMARK    4  A    between atoms: C_8  and  S_9
REMARK    5  A    between atoms: S_9  and  N_12
REMARK    6  A    between atoms: N_12  and  C_13
REMARK    7  A    between atoms: C_13  and  C_14
REMARK                            x       y       z     vdW  Elec       q    Type
REMARK                         _______ _______ _______ _____ _____    ______ ____
ROOT
ATOM      1  S   UNL     1     -40.316-161.602 308.214  0.00  0.00    +0.000 S 
ATOM      2  O   UNL     1     -41.279-162.468 307.562  0.00  0.00    +0.000 OA
ATOM      3  O   UNL     1     -40.001-160.314 307.665  0.00  0.00    +0.000 OA
ENDROOT
BRANCH   1   8
ATOM      4  C   UNL     1     -41.589-160.890 312.513  0.00  0.00    +0.000 A 
ATOM      5  C   UNL     1     -41.544-162.200 312.006  0.00  0.00    +0.000 A 
ATOM      6  C   UNL     1     -41.171-162.443 310.678  0.00  0.00    +0.000 A 
ATOM      7 BR   UNL     1     -41.016-164.263 310.144  0.00  0.00    +0.000 Br
ATOM      8  C   UNL     1     -40.945-161.358 309.828  0.00  0.00    +0.000 A 
ATOM      9  C   UNL     1     -41.010-160.066 310.322  0.00  0.00    +0.000 A 
ATOM     10  C   UNL     1     -41.160-159.850 311.679  0.00  0.00    +0.000 A 
ATOM     11 CL   UNL     1     -40.478-158.331 312.170  0.00  0.00    +0.000 Cl
BRANCH   4  12
ATOM     12  O   UNL     1     -41.931-160.765 313.835  0.00  0.00    +0.000 OA
BRANCH  12  14
ATOM     13  C   UNL     1     -42.336-161.783 316.040  0.00  0.00    +0.000 C 
ATOM     14  C   UNL     1     -41.701-161.919 314.677  0.00  0.00    +0.000 C 
ENDBRANCH  12  14
ENDBRANCH   4  12
ENDBRANCH   1   8
BRANCH   1  15
ATOM     15  N   UNL     1     -38.817-162.412 308.350  0.00  0.00    +0.000 NA
ATOM     16  H   UNL     1     -38.254-161.960 309.074  0.00  0.00    +0.000 HD
BRANCH  15  17
ATOM     17  C   UNL     1     -38.007-162.834 307.189  0.00  0.00    +0.000 C 
BRANCH  17  18
ATOM     18  C   UNL     1     -37.921-164.308 306.962  0.00  0.00    +0.000 A 
ATOM     19  C   UNL     1     -36.745-165.019 307.191  0.00  0.00    +0.000 A 
ATOM     20  C   UNL     1     -36.575-166.239 306.578  0.00  0.00    +0.000 A 
ATOM     21  N   UNL     1     -37.578-166.898 305.976  0.00  0.00    +0.000 NA
ATOM     22  C   UNL     1     -38.779-166.279 305.954  0.00  0.00    +0.000 A 
ATOM     23  C   UNL     1     -38.996-164.986 306.395  0.00  0.00    +0.000 A 
ENDBRANCH  17  18
ENDBRANCH  15  17
ENDBRANCH   1  15
TORSDOF 6
ENDMDL
MODEL 2
REMARK VINA RESULT:    -8.547      2.921      4.149
REMARK INTER + INTRA:         -11.810
REMARK INTER:                 -11.485
REMARK INTRA:                  -0.325
REMARK UNBOUND:                -0.265
REMARK  Name = 
REMARK  7 active torsions:
REMARK  status: ('A' for Active; 'I' for Inactive)
REMARK    1  A    between atoms: C_1  and  C_2
REMARK    2  A    between atoms: C_2  and  O_3
REMARK    3  A    between atoms: O_3  and  C_4
REMARK    4  A    between atoms: C_8  and  S_9
REMARK    5  A    between atoms: S_9  and  N_12
REMARK    6  A    between atoms: N_12  and  C_13
REMARK    7  A    between atoms: C_13  and  C_14
REMARK                            x       y       z     vdW  Elec       q    Type
REMARK                         _______ _______ _______ _____ _____    ______ ____
ROOT
ATOM      1  S   UNL     1     -40.356-162.449 310.835  0.00  0.00    +0.000 S 
ATOM      2  O   UNL     1     -39.265-161.972 311.663  0.00  0.00    +0.000 OA
ATOM      3  O   UNL     1     -41.312-163.387 311.353  0.00  0.00    +0.000 OA
ENDROOT
BRANCH   1   8
ATOM      4  C   UNL     1     -42.270-158.534 309.562  0.00  0.00    +0.000 A 
ATOM      5  C   UNL     1     -42.355-158.950 310.901  0.00  0.00    +0.000 A 
ATOM      6  C   UNL     1     -41.787-160.162 311.314  0.00  0.00    +0.000 A 
ATOM      7 BR   UNL     1     -41.847-160.553 313.176  0.00  0.00    +0.000 Br
ATOM      8  C   UNL     1     -41.225-161.008 310.356  0.00  0.00    +0.000 A 
ATOM      9  C   UNL     1     -41.161-160.609 309.031  0.00  0.00    +0.000 A 
ATOM     10  C   UNL     1     -41.523-159.322 308.678  0.00  0.00    +0.000 A 
ATOM     11 CL   UNL     1     -40.696-158.791 307.247  0.00  0.00    +0.000 Cl
BRANCH   4  12
ATOM     12  O   UNL     1     -42.827-157.316 309.270  0.00  0.00    +0.000 OA
BRANCH  12  14
ATOM     13  C   UNL     1     -44.316-155.894 307.919  0.00  0.00    +0.000 C 
ATOM     14  C   UNL     1     -43.770-157.279 308.174  0.00  0.00    +0.000 C 
ENDBRANCH  12  14
ENDBRANCH   4  12
ENDBRANCH   1   8
BRANCH   1  15
ATOM     15  N   UNL     1     -39.728-163.179 309.424  0.00  0.00    +0.000 NA
ATOM     16  H   UNL     1     -39.902-162.569 308.622  0.00  0.00    +0.000 HD
BRANCH  15  17
ATOM     17  C   UNL     1     -39.907-164.608 309.093  0.00  0.00    +0.000 C 
BRANCH  17  18
ATOM     18  C   UNL     1     -39.068-165.122 307.968  0.00  0.00    +0.000 A 
ATOM     19  C   UNL     1     -37.991-164.397 307.465  0.00  0.00    +0.000 A 
ATOM     20  C   UNL     1     -37.533-164.678 306.199  0.00  0.00    +0.000 A 
ATOM     21  N   UNL     1     -37.899-165.777 305.519  0.00  0.00    +0.000 NA
ATOM     22  C   UNL     1     -38.792-166.591 306.124  0.00  0.00    +0.000 A 
ATOM     23  C   UNL     1     -39.428-166.298 307.317  0.00  0.00    +0.000 A 
ENDBRANCH  17  18
ENDBRANCH  15  17
ENDBRANCH   1  15
TORSDOF 6
ENDMDL
MODEL 3
REMARK VINA RESULT:    -8.464      5.973      7.867
REMARK INTER + INTRA:         -11.698
REMARK INTER:                 -11.407
REMARK INTRA:                  -0.291
REMARK UNBOUND:                -0.265
REMARK  Name = 
REMARK  7 active torsions:
REMARK  status: ('A' for Active; 'I' for Inactive)
REMARK    1  A    between atoms: C_1  and  C_2
REMARK    2  A    between atoms: C_2  and  O_3
REMARK    3  A    between atoms: O_3  and  C_4
REMARK    4  A    between atoms: C_8  and  S_9
REMARK    5  A    between atoms: S_9  and  N_12
REMARK    6  A    between atoms: N_12  and  C_13
REMARK    7  A    between atoms: C_13  and  C_14
REMARK                            x       y       z     vdW  Elec       q    Type
REMARK                         _______ _______ _______ _____ _____    ______ ____
ROOT
ATOM      1  S   UNL     1     -43.381-155.796 307.253  0.00  0.00    +0.000 S 
ATOM      2  O   UNL     1     -44.286-155.374 308.304  0.00  0.00    +0.000 OA
ATOM      3  O   UNL     1     -42.327-154.931 306.803  0.00  0.00    +0.000 OA
ENDROOT
BRANCH   1   8
ATOM      4  C   UNL     1     -41.236-159.396 308.998  0.00  0.00    +0.000 A 
ATOM      5  C   UNL     1     -41.036-159.050 307.651  0.00  0.00    +0.000 A 
ATOM      6  C   UNL     1     -41.701-157.953 307.086  0.00  0.00    +0.000 A 
ATOM      7 BR   UNL     1     -41.248-157.501 305.293  0.00  0.00    +0.000 Br
ATOM      8  C   UNL     1     -42.649-157.268 307.849  0.00  0.00    +0.000 A 
ATOM      9  C   UNL     1     -42.861-157.623 309.171  0.00  0.00    +0.000 A 
ATOM     10  C   UNL     1     -42.043-158.558 309.777  0.00  0.00    +0.000 A 
ATOM     11 CL   UNL     1     -41.946-158.313 311.492  0.00  0.00    +0.000 Cl
BRANCH   4  12
ATOM     12  O   UNL     1     -40.510-160.463 309.461  0.00  0.00    +0.000 OA
BRANCH  12  14
ATOM     13  C   UNL     1     -40.551-162.306 311.093  0.00  0.00    +0.000 C 
ATOM     14  C   UNL     1     -41.263-161.587 309.973  0.00  0.00    +0.000 C 
ENDBRANCH  12  14
ENDBRANCH   4  12
ENDBRANCH   1   8
BRANCH   1  15
ATOM     15  N   UNL     1     -44.275-156.183 305.849  0.00  0.00    +0.000 NA
ATOM     16  H   UNL     1     -43.968-155.586 305.078  0.00  0.00    +0.000 HD
BRANCH  15  17
ATOM     17  C   UNL     1     -45.736-156.402 305.843  0.00  0.00    +0.000 C 
BRANCH  17  18
ATOM     18  C   UNL     1     -46.181-157.789 305.510  0.00  0.00    +0.000 A 
ATOM     19  C   UNL     1     -46.247-158.243 304.195  0.00  0.00    +0.000 A 
ATOM     20  C   UNL     1     -47.046-159.324 303.903  0.00  0.00    +0.000 A 
ATOM     21  N   UNL     1     -47.567-160.122 304.850  0.00  0.00    +0.000 NA
ATOM     22  C   UNL     1     -47.308-159.784 306.133  0.00  0.00    +0.000 A 
ATOM     23  C   UNL     1     -46.659-158.624 306.515  0.00  0.00    +0.000 A 
ENDBRANCH  17  18
ENDBRANCH  15  17
ENDBRANCH   1  15
TORSDOF 6
ENDMDL
MODEL 4
REMARK VINA RESULT:    -8.235      3.238      4.920
REMARK INTER + INTRA:         -11.388
REMARK INTER:                 -11.024
REMARK INTRA:                  -0.364
REMARK UNBOUND:                -0.265
REMARK  Name = 
REMARK  7 active torsions:
REMARK  status: ('A' for Active; 'I' for Inactive)
REMARK    1  A    between atoms: C_1  and  C_2
REMARK    2  A    between atoms: C_2  and  O_3
REMARK    3  A    between atoms: O_3  and  C_4
REMARK    4  A    between atoms: C_8  and  S_9
REMARK    5  A    between atoms: S_9  and  N_12
REMARK    6  A    between atoms: N_12  and  C_13
REMARK    7  A    between atoms: C_13  and  C_14
REMARK                            x       y       z     vdW  Elec       q    Type
REMARK                         _______ _______ _______ _____ _____    ______ ____
ROOT
ATOM      1  S   UNL     1     -40.827-161.130 311.647  0.00  0.00    +0.000 S 
ATOM      2  O   UNL     1     -40.054-160.267 312.519  0.00  0.00    +0.000 OA
ATOM      3  O   UNL     1     -41.818-162.018 312.187  0.00  0.00    +0.000 OA
ENDROOT
BRANCH   1   8
ATOM      4  C   UNL     1     -42.570-158.145 308.705  0.00  0.00    +0.000 A 
ATOM      5  C   UNL     1     -42.855-158.022 310.075  0.00  0.00    +0.000 A 
ATOM      6  C   UNL     1     -42.342-158.941 311.000  0.00  0.00    +0.000 A 
ATOM      7 BR   UNL     1     -42.683-158.594 312.840  0.00  0.00    +0.000 Br
ATOM      8  C   UNL     1     -41.629-160.047 310.532  0.00  0.00    +0.000 A 
ATOM      9  C   UNL     1     -41.367-160.181 309.179  0.00  0.00    +0.000 A 
ATOM     10  C   UNL     1     -41.686-159.156 308.308  0.00  0.00    +0.000 A 
ATOM     11 CL   UNL     1     -40.656-159.154 306.911  0.00  0.00    +0.000 Cl
BRANCH   4  12
ATOM     12  O   UNL     1     -43.090-157.173 307.890  0.00  0.00    +0.000 OA
BRANCH  12  14
ATOM     13  C   UNL     1     -42.505-154.824 307.439  0.00  0.00    +0.000 C 
ATOM     14  C   UNL     1     -43.090-155.823 308.408  0.00  0.00    +0.000 C 
ENDBRANCH  12  14
ENDBRANCH   4  12
ENDBRANCH   1   8
BRANCH   1  15
ATOM     15  N   UNL     1     -39.773-162.128 310.746  0.00  0.00    +0.000 NA
ATOM     16  H   UNL     1     -39.116-161.542 310.226  0.00  0.00    +0.000 HD
BRANCH  15  17
ATOM     17  C   UNL     1     -40.222-163.299 309.965  0.00  0.00    +0.000 C 
BRANCH  17  18
ATOM     18  C   UNL     1     -39.380-163.650 308.781  0.00  0.00    +0.000 A 
ATOM     19  C   UNL     1     -39.064-164.970 308.471  0.00  0.00    +0.000 A 
ATOM     20  C   UNL     1     -37.972-165.223 307.673  0.00  0.00    +0.000 A 
ATOM     21  N   UNL     1     -37.346-164.265 306.971  0.00  0.00    +0.000 NA
ATOM     22  C   UNL     1     -37.811-163.005 307.120  0.00  0.00    +0.000 A 
ATOM     23  C   UNL     1     -38.790-162.641 308.027  0.00  0.00    +0.000 A 
ENDBRANCH  17  18
ENDBRANCH  15  17
ENDBRANCH   1  15
TORSDOF 6
ENDMDL
MODEL 5
REMARK VINA RESULT:    -8.110      3.846      6.663
REMARK INTER + INTRA:         -11.219
REMARK INTER:                 -10.631
REMARK INTRA:                  -0.588
REMARK UNBOUND:                -0.265
REMARK  Name = 
REMARK  7 active torsions:
REMARK  status: ('A' for Active; 'I' for Inactive)
REMARK    1  A    between atoms: C_1  and  C_2
REMARK    2  A    between atoms: C_2  and  O_3
REMARK    3  A    between atoms: O_3  and  C_4
REMARK    4  A    between atoms: C_8  and  S_9
REMARK    5  A    between atoms: S_9  and  N_12
REMARK    6  A    between atoms: N_12  and  C_13
REMARK    7  A    between atoms: C_13  and  C_14
REMARK                            x       y       z     vdW  Elec       q    Type
REMARK                         _______ _______ _______ _____ _____    ______ ____
ROOT
ATOM      1  S   UNL     1     -41.557-159.156 311.263  0.00  0.00    +0.000 S 
ATOM      2  O   UNL     1     -42.892-159.416 311.766  0.00  0.00    +0.000 OA
ATOM      3  O   UNL     1     -40.563-158.549 312.103  0.00  0.00    +0.000 OA
ENDROOT
BRANCH   1   8
ATOM      4  C   UNL     1     -40.327-163.270 309.791  0.00  0.00    +0.000 A 
ATOM      5  C   UNL     1     -40.586-163.066 311.156  0.00  0.00    +0.000 A 
ATOM      6  C   UNL     1     -40.951-161.801 311.637  0.00  0.00    +0.000 A 
ATOM      7 BR   UNL     1     -41.408-161.678 313.480  0.00  0.00    +0.000 Br
ATOM      8  C   UNL     1     -40.951-160.717 310.757  0.00  0.00    +0.000 A 
ATOM      9  C   UNL     1     -40.674-160.914 309.415  0.00  0.00    +0.000 A 
ATOM     10  C   UNL     1     -40.535-162.196 308.917  0.00  0.00    +0.000 A 
ATOM     11 CL   UNL     1     -40.953-162.283 307.235  0.00  0.00    +0.000 Cl
BRANCH   4  12
ATOM     12  O   UNL     1     -40.014-164.552 309.420  0.00  0.00    +0.000 OA
BRANCH  12  14
ATOM     13  C   UNL     1     -39.007-165.482 307.374  0.00  0.00    +0.000 C 
ATOM     14  C   UNL     1     -38.793-164.730 308.666  0.00  0.00    +0.000 C 
ENDBRANCH  12  14
ENDBRANCH   4  12
ENDBRANCH   1   8
BRANCH   1  15
ATOM     15  N   UNL     1     -41.650-158.154 309.882  0.00  0.00    +0.000 NA
ATOM     16  H   UNL     1     -41.248-157.239 310.101  0.00  0.00    +0.000 HD
BRANCH  15  17
ATOM     17  C   UNL     1     -42.849-158.051 309.025  0.00  0.00    +0.000 C 
BRANCH  17  18
ATOM     18  C   UNL     1     -42.589-157.796 307.575  0.00  0.00    +0.000 A 
ATOM     19  C   UNL     1     -41.380-158.141 306.975  0.00  0.00    +0.000 A 
ATOM     20  C   UNL     1     -41.020-157.520 305.801  0.00  0.00    +0.000 A 
ATOM     21  N   UNL     1     -41.878-156.790 305.070  0.00  0.00    +0.000 NA
ATOM     22  C   UNL     1     -43.125-156.646 305.569  0.00  0.00    +0.000 A 
ATOM     23  C   UNL     1     -43.520-157.093 306.818  0.00  0.00    +0.000 A 
ENDBRANCH  17  18
ENDBRANCH  15  17
ENDBRANCH   1  15
TORSDOF 6
ENDMDL
MODEL 6
REMARK VINA RESULT:    -8.038      2.080      2.370
REMARK INTER + INTRA:         -11.122
REMARK INTER:                 -10.874
REMARK INTRA:                  -0.248
REMARK UNBOUND:                -0.265
REMARK  Name = 
REMARK  7 active torsions:
REMARK  status: ('A' for Active; 'I' for Inactive)
REMARK    1  A    between atoms: C_1  and  C_2
REMARK    2  A    between atoms: C_2  and  O_3
REMARK    3  A    between atoms: O_3  and  C_4
REMARK    4  A    between atoms: C_8  and  S_9
REMARK    5  A    between atoms: S_9  and  N_12
REMARK    6  A    between atoms: N_12  and  C_13
REMARK    7  A    between atoms: C_13  and  C_14
REMARK                            x       y       z     vdW  Elec       q    Type
REMARK                         _______ _______ _______ _____ _____    ______ ____
ROOT
ATOM      1  S   UNL     1     -40.278-161.672 308.359  0.00  0.00    +0.000 S 
ATOM      2  O   UNL     1     -41.498-162.362 307.986  0.00  0.00    +0.000 OA
ATOM      3  O   UNL     1     -39.630-160.782 307.437  0.00  0.00    +0.000 OA
ENDROOT
BRANCH   1   8
ATOM      4  C   UNL     1     -41.656-159.527 312.115  0.00  0.00    +0.000 A 
ATOM      5  C   UNL     1     -41.872-158.941 310.857  0.00  0.00    +0.000 A 
ATOM      6  C   UNL     1     -41.441-159.576 309.685  0.00  0.00    +0.000 A 
ATOM      7 BR   UNL     1     -41.910-158.751 308.035  0.00  0.00    +0.000 Br
ATOM      8  C   UNL     1     -40.696-160.752 309.787  0.00  0.00    +0.000 A 
ATOM      9  C   UNL     1     -40.463-161.320 311.028  0.00  0.00    +0.000 A 
ATOM     10  C   UNL     1     -41.081-160.804 312.152  0.00  0.00    +0.000 A 
ATOM     11 CL   UNL     1     -41.296-162.011 313.380  0.00  0.00    +0.000 Cl
BRANCH   4  12
ATOM     12  O   UNL     1     -42.149-158.842 313.195  0.00  0.00    +0.000 OA
BRANCH  12  14
ATOM     13  C   UNL     1     -44.007-160.153 314.138  0.00  0.00    +0.000 C 
ATOM     14  C   UNL     1     -43.578-158.904 313.406  0.00  0.00    +0.000 C 
ENDBRANCH  12  14
ENDBRANCH   4  12
ENDBRANCH   1   8
BRANCH   1  15
ATOM     15  N   UNL     1     -39.084-162.813 308.797  0.00  0.00    +0.000 NA
ATOM     16  H   UNL     1     -38.250-162.666 308.224  0.00  0.00    +0.000 HD
BRANCH  15  17
ATOM     17  C   UNL     1     -39.365-164.245 309.023  0.00  0.00    +0.000 C 
BRANCH  17  18
ATOM     18  C   UNL     1     -38.809-165.184 308.002  0.00  0.00    +0.000 A 
ATOM     19  C   UNL     1     -37.591-164.943 307.370  0.00  0.00    +0.000 A 
ATOM     20  C   UNL     1     -37.330-165.564 306.170  0.00  0.00    +0.000 A 
ATOM     21  N   UNL     1     -38.072-166.579 305.699  0.00  0.00    +0.000 NA
ATOM     22  C   UNL     1     -39.137-166.945 306.444  0.00  0.00    +0.000 A 
ATOM     23  C   UNL     1     -39.567-166.268 307.572  0.00  0.00    +0.000 A 
ENDBRANCH  17  18
ENDBRANCH  15  17
ENDBRANCH   1  15
TORSDOF 6
ENDMDL
MODEL 7
REMARK VINA RESULT:    -7.864      4.165      6.243
REMARK INTER + INTRA:         -10.886
REMARK INTER:                 -10.907
REMARK INTRA:                   0.020
REMARK UNBOUND:                -0.265
REMARK  Name = 
REMARK  7 active torsions:
REMARK  status: ('A' for Active; 'I' for Inactive)
REMARK    1  A    between atoms: C_1  and  C_2
REMARK    2  A    between atoms: C_2  and  O_3
REMARK    3  A    between atoms: O_3  and  C_4
REMARK    4  A    between atoms: C_8  and  S_9
REMARK    5  A    between atoms: S_9  and  N_12
REMARK    6  A    between atoms: N_12  and  C_13
REMARK    7  A    between atoms: C_13  and  C_14
REMARK                            x       y       z     vdW  Elec       q    Type
REMARK                         _______ _______ _______ _____ _____    ______ ____
ROOT
ATOM      1  S   UNL     1     -41.890-159.407 310.579  0.00  0.00    +0.000 S 
ATOM      2  O   UNL     1     -40.509-159.309 311.011  0.00  0.00    +0.000 OA
ATOM      3  O   UNL     1     -42.957-158.985 311.441  0.00  0.00    +0.000 OA
ENDROOT
BRANCH   1   8
ATOM      4  C   UNL     1     -42.462-157.089 306.718  0.00  0.00    +0.000 A 
ATOM      5  C   UNL     1     -41.593-158.193 306.748  0.00  0.00    +0.000 A 
ATOM      6  C   UNL     1     -41.387-158.913 307.932  0.00  0.00    +0.000 A 
ATOM      7 BR   UNL     1     -40.295-160.468 307.817  0.00  0.00    +0.000 Br
ATOM      8  C   UNL     1     -41.976-158.457 309.113  0.00  0.00    +0.000 A 
ATOM      9  C   UNL     1     -42.815-157.356 309.089  0.00  0.00    +0.000 A 
ATOM     10  C   UNL     1     -43.183-156.793 307.882  0.00  0.00    +0.000 A 
ATOM     11 CL   UNL     1     -44.727-156.006 307.982  0.00  0.00    +0.000 Cl
BRANCH   4  12
ATOM     12  O   UNL     1     -42.620-156.477 305.502  0.00  0.00    +0.000 OA
BRANCH  12  14
ATOM     13  C   UNL     1     -44.010-154.625 304.663  0.00  0.00    +0.000 C 
ATOM     14  C   UNL     1     -42.839-155.048 305.519  0.00  0.00    +0.000 C 
ENDBRANCH  12  14
ENDBRANCH   4  12
ENDBRANCH   1   8
BRANCH   1  15
ATOM     15  N   UNL     1     -42.252-161.029 310.178  0.00  0.00    +0.000 NA
ATOM     16  H   UNL     1     -43.186-161.074 309.765  0.00  0.00    +0.000 HD
BRANCH  15  17
ATOM     17  C   UNL     1     -41.975-162.174 311.069  0.00  0.00    +0.000 C 
BRANCH  17  18
ATOM     18  C   UNL     1     -41.112-163.250 310.493  0.00  0.00    +0.000 A 
ATOM     19  C   UNL     1     -39.803-163.002 310.086  0.00  0.00    +0.000 A 
ATOM     20  C   UNL     1     -39.211-163.863 309.192  0.00  0.00    +0.000 A 
ATOM     21  N   UNL     1     -39.728-165.063 308.883  0.00  0.00    +0.000 NA
ATOM     22  C   UNL     1     -40.907-165.379 309.463  0.00  0.00    +0.000 A 
ATOM     23  C   UNL     1     -41.650-164.507 310.239  0.00  0.00    +0.000 A 
ENDBRANCH  17  18
ENDBRANCH  15  17
ENDBRANCH   1  15
TORSDOF 6
ENDMDL
MODEL 8
REMARK VINA RESULT:    -7.701      3.472      4.909
REMARK INTER + INTRA:         -10.667
REMARK INTER:                 -10.423
REMARK INTRA:                  -0.244
REMARK UNBOUND:                -0.265
REMARK  Name = 
REMARK  7 active torsions:
REMARK  status: ('A' for Active; 'I' for Inactive)
REMARK    1  A    between atoms: C_1  and  C_2
REMARK    2  A    between atoms: C_2  and  O_3
REMARK    3  A    between atoms: O_3  and  C_4
REMARK    4  A    between atoms: C_8  and  S_9
REMARK    5  A    between atoms: S_9  and  N_12
REMARK    6  A    between atoms: N_12  and  C_13
REMARK    7  A    between atoms: C_13  and  C_14
REMARK                            x       y       z     vdW  Elec       q    Type
REMARK                         _______ _______ _______ _____ _____    ______ ____
ROOT
ATOM      1  S   UNL     1     -41.037-161.174 310.582  0.00  0.00    +0.000 S 
ATOM      2  O   UNL     1     -40.181-160.627 311.617  0.00  0.00    +0.000 OA
ATOM      3  O   UNL     1     -42.082-162.102 310.912  0.00  0.00    +0.000 OA
ENDROOT
BRANCH   1   8
ATOM      4  C   UNL     1     -42.599-157.411 308.581  0.00  0.00    +0.000 A 
ATOM      5  C   UNL     1     -42.813-157.612 309.955  0.00  0.00    +0.000 A 
ATOM      6  C   UNL     1     -42.355-158.773 310.591  0.00  0.00    +0.000 A 
ATOM      7 BR   UNL     1     -42.584-158.871 312.478  0.00  0.00    +0.000 Br
ATOM      8  C   UNL     1     -41.774-159.783 309.821  0.00  0.00    +0.000 A 
ATOM      9  C   UNL     1     -41.583-159.595 308.463  0.00  0.00    +0.000 A 
ATOM     10  C   UNL     1     -41.836-158.362 307.892  0.00  0.00    +0.000 A 
ATOM     11 CL   UNL     1     -40.869-158.097 306.475  0.00  0.00    +0.000 Cl
BRANCH   4  12
ATOM     12  O   UNL     1     -43.055-156.226 308.065  0.00  0.00    +0.000 OA
BRANCH  12  14
ATOM     13  C   UNL     1     -44.991-155.165 306.975  0.00  0.00    +0.000 C 
ATOM     14  C   UNL     1     -44.012-156.314 306.984  0.00  0.00    +0.000 C 
ENDBRANCH  12  14
ENDBRANCH   4  12
ENDBRANCH   1   8
BRANCH   1  15
ATOM     15  N   UNL     1     -40.082-161.972 309.410  0.00  0.00    +0.000 NA
ATOM     16  H   UNL     1     -40.088-161.429 308.544  0.00  0.00    +0.000 HD
BRANCH  15  17
ATOM     17  C   UNL     1     -40.137-163.427 309.162  0.00  0.00    +0.000 C 
BRANCH  17  18
ATOM     18  C   UNL     1     -39.080-163.970 308.255  0.00  0.00    +0.000 A 
ATOM     19  C   UNL     1     -38.155-163.139 307.627  0.00  0.00    +0.000 A 
ATOM     20  C   UNL     1     -37.506-163.597 306.504  0.00  0.00    +0.000 A 
ATOM     21  N   UNL     1     -37.524-164.886 306.126  0.00  0.00    +0.000 NA
ATOM     22  C   UNL     1     -38.262-165.726 306.884  0.00  0.00    +0.000 A 
ATOM     23  C   UNL     1     -39.078-165.321 307.925  0.00  0.00    +0.000 A 
ENDBRANCH  17  18
ENDBRANCH  15  17
ENDBRANCH   1  15
TORSDOF 6
ENDMDL
MODEL 9
REMARK VINA RESULT:    -7.556      2.645      3.983
REMARK INTER + INTRA:         -10.470
REMARK INTER:                 -11.190
REMARK INTRA:                   0.720
REMARK UNBOUND:                -0.265
REMARK  Name = 
REMARK  7 active torsions:
REMARK  status: ('A' for Active; 'I' for Inactive)
REMARK    1  A    between atoms: C_1  and  C_2
REMARK    2  A    between atoms: C_2  and  O_3
REMARK    3  A    between atoms: O_3  and  C_4
REMARK    4  A    between atoms: C_8  and  S_9
REMARK    5  A    between atoms: S_9  and  N_12
REMARK    6  A    between atoms: N_12  and  C_13
REMARK    7  A    between atoms: C_13  and  C_14
REMARK                            x       y       z     vdW  Elec       q    Type
REMARK                         _______ _______ _______ _____ _____    ______ ____
ROOT
ATOM      1  S   UNL     1     -40.153-162.234 311.018  0.00  0.00    +0.000 S 
ATOM      2  O   UNL     1     -39.032-161.964 311.897  0.00  0.00    +0.000 OA
ATOM      3  O   UNL     1     -41.248-163.052 311.459  0.00  0.00    +0.000 OA
ENDROOT
BRANCH   1   8
ATOM      4  C   UNL     1     -42.154-158.273 310.065  0.00  0.00    +0.000 A 
ATOM      5  C   UNL     1     -41.819-159.154 309.023  0.00  0.00    +0.000 A 
ATOM      6  C   UNL     1     -41.186-160.375 309.291  0.00  0.00    +0.000 A 
ATOM      7 BR   UNL     1     -40.906-161.544 307.815  0.00  0.00    +0.000 Br
ATOM      8  C   UNL     1     -40.793-160.661 310.601  0.00  0.00    +0.000 A 
ATOM      9  C   UNL     1     -41.103-159.782 311.625  0.00  0.00    +0.000 A 
ATOM     10  C   UNL     1     -41.919-158.694 311.379  0.00  0.00    +0.000 A 
ATOM     11 CL   UNL     1     -42.779-158.199 312.804  0.00  0.00    +0.000 Cl
BRANCH   4  12
ATOM     12  O   UNL     1     -42.803-157.122 309.698  0.00  0.00    +0.000 OA
BRANCH  12  14
ATOM     13  C   UNL     1     -43.036-155.332 308.024  0.00  0.00    +0.000 C 
ATOM     14  C   UNL     1     -42.808-156.801 308.288  0.00  0.00    +0.000 C 
ENDBRANCH  12  14
ENDBRANCH   4  12
ENDBRANCH   1   8
BRANCH   1  15
ATOM     15  N   UNL     1     -39.591-162.972 309.582  0.00  0.00    +0.000 NA
ATOM     16  H   UNL     1     -39.794-162.362 308.787  0.00  0.00    +0.000 HD
BRANCH  15  17
ATOM     17  C   UNL     1     -39.795-164.400 309.262  0.00  0.00    +0.000 C 
BRANCH  17  18
ATOM     18  C   UNL     1     -39.007-164.923 308.104  0.00  0.00    +0.000 A 
ATOM     19  C   UNL     1     -37.963-164.195 307.539  0.00  0.00    +0.000 A 
ATOM     20  C   UNL     1     -37.566-164.490 306.255  0.00  0.00    +0.000 A 
ATOM     21  N   UNL     1     -37.954-165.602 305.609  0.00  0.00    +0.000 NA
ATOM     22  C   UNL     1     -38.809-166.415 306.269  0.00  0.00    +0.000 A 
ATOM     23  C   UNL     1     -39.387-166.110 307.488  0.00  0.00    +0.000 A 
ENDBRANCH  17  18
ENDBRANCH  15  17
ENDBRANCH   1  15
TORSDOF 6
ENDMDL
MODEL 10
REMARK VINA RESULT:    -7.426      3.667      7.169
REMARK INTER + INTRA:         -10.295
REMARK INTER:                  -9.871
REMARK INTRA:                  -0.424
REMARK UNBOUND:                -0.265
REMARK  Name = 
REMARK  7 active torsions:
REMARK  status: ('A' for Active; 'I' for Inactive)
REMARK    1  A    between atoms: C_1  and  C_2
REMARK    2  A    between atoms: C_2  and  O_3
REMARK    3  A    between atoms: O_3  and  C_4
REMARK    4  A    between atoms: C_8  and  S_9
REMARK    5  A    between atoms: S_9  and  N_12
REMARK    6  A    between atoms: N_12  and  C_13
REMARK    7  A    between atoms: C_13  and  C_14
REMARK                            x       y       z     vdW  Elec       q    Type
REMARK                         _______ _______ _______ _____ _____    ______ ____
ROOT
ATOM      1  S   UNL     1     -41.209-161.686 310.000  0.00  0.00    +0.000 S 
ATOM      2  O   UNL     1     -42.477-162.111 309.439  0.00  0.00    +0.000 OA
ATOM      3  O   UNL     1     -41.025-161.613 311.422  0.00  0.00    +0.000 OA
ENDROOT
BRANCH   1   8
ATOM      4  C   UNL     1     -38.310-164.553 308.004  0.00  0.00    +0.000 A 
ATOM      5  C   UNL     1     -39.353-165.056 308.800  0.00  0.00    +0.000 A 
ATOM      6  C   UNL     1     -40.249-164.190 309.440  0.00  0.00    +0.000 A 
ATOM      7 BR   UNL     1     -41.699-164.990 310.379  0.00  0.00    +0.000 Br
ATOM      8  C   UNL     1     -40.031-162.813 309.364  0.00  0.00    +0.000 A 
ATOM      9  C   UNL     1     -38.991-162.317 308.597  0.00  0.00    +0.000 A 
ATOM     10  C   UNL     1     -38.253-163.169 307.797  0.00  0.00    +0.000 A 
ATOM     11 CL   UNL     1     -37.582-162.345 306.425  0.00  0.00    +0.000 Cl
BRANCH   4  12
ATOM     12  O   UNL     1     -37.511-165.486 307.394  0.00  0.00    +0.000 OA
BRANCH  12  14
ATOM     13  C   UNL     1     -38.338-165.726 305.087  0.00  0.00    +0.000 C 
ATOM     14  C   UNL     1     -38.152-166.366 306.442  0.00  0.00    +0.000 C 
ENDBRANCH  12  14
ENDBRANCH   4  12
ENDBRANCH   1   8
BRANCH   1  15
ATOM     15  N   UNL     1     -40.817-160.129 309.416  0.00  0.00    +0.000 NA
ATOM     16  H   UNL     1     -39.849-159.909 309.662  0.00  0.00    +0.000 HD
BRANCH  15  17
ATOM     17  C   UNL     1     -41.708-158.958 309.544  0.00  0.00    +0.000 C 
BRANCH  17  18
ATOM     18  C   UNL     1     -41.982-158.210 308.280  0.00  0.00    +0.000 A 
ATOM     19  C   UNL     1     -41.307-158.499 307.096  0.00  0.00    +0.000 A 
ATOM     20  C   UNL     1     -41.263-157.544 306.106  0.00  0.00    +0.000 A 
ATOM     21  N   UNL     1     -42.043-156.451 306.113  0.00  0.00    +0.000 NA
ATOM     22  C   UNL     1     -42.858-156.298 307.179  0.00  0.00    +0.000 A 
ATOM     23  C   UNL     1     -42.844-157.118 308.293  0.00  0.00    +0.000 A 
ENDBRANCH  17  18
ENDBRANCH  15  17
ENDBRANCH   1  15
TORSDOF 6
ENDMDL
