MODEL 1
REMARK VINA RESULT:    -9.234      0.000      0.000
REMARK INTER + INTRA:         -12.919
REMARK INTER:                 -12.473
REMARK INTRA:                  -0.446
REMARK UNBOUND:                -0.446
REMARK  Name = 
REMARK  10 active torsions:
REMARK  status: ('A' for Active; 'I' for Inactive)
REMARK    1  A    between atoms: C_1  and  C_2
REMARK    2  A    between atoms: C_2  and  C_3
REMARK    3  A    between atoms: C_5  and  C_6
REMARK    4  A    between atoms: C_9  and  C_10
REMARK    5  A    between atoms: C_10  and  O_11
REMARK    6  A    between atoms: O_11  and  C_12
REMARK    7  A    between atoms: C_12  and  C_14
REMARK    8  A    between atoms: C_19  and  C_21
REMARK    9  A    between atoms: C_21  and  C_22
REMARK   10  A    between atoms: C_21  and  C_23
REMARK                            x       y       z     vdW  Elec       q    Type
REMARK                         _______ _______ _______ _____ _____    ______ ____
ROOT
ATOM      1  C   UNL     1     -41.974-161.944 314.955  0.00  0.00    +0.000 A 
ATOM      2  C   UNL     1     -42.852-160.796 314.980  0.00  0.00    +0.000 A 
ATOM      3  C   UNL     1     -43.048-160.030 313.893  0.00  0.00    +0.000 A 
ATOM      4  C   UNL     1     -43.952-158.845 313.886  0.00  0.00    +0.000 C 
ATOM      5  C   UNL     1     -42.421-160.414 312.581  0.00  0.00    +0.000 A 
ATOM      6  N   UNL     1     -42.656-159.710 311.506  0.00  0.00    +0.000 NA
ATOM      7  C   UNL     1     -42.154-160.129 310.285  0.00  0.00    +0.000 A 
ATOM      8  C   UNL     1     -41.658-161.392 310.168  0.00  0.00    +0.000 A 
ATOM      9  C   UNL     1     -41.120-162.052 311.430  0.00  0.00    +0.000 A 
ATOM     10  O   UNL     1     -40.208-162.855 311.356  0.00  0.00    +0.000 OA
ATOM     11  N   UNL     1     -41.636-161.554 312.617  0.00  0.00    +0.000 N 
ATOM     12  C   UNL     1     -41.356-162.234 313.794  0.00  0.00    +0.000 A 
ENDROOT
BRANCH   1  14
ATOM     13  C   UNL     1     -41.243-162.104 317.391  0.00  0.00    +0.000 C 
ATOM     14  C   UNL     1     -41.890-162.806 316.197  0.00  0.00    +0.000 C 
ENDBRANCH   1  14
BRANCH   7  15
ATOM     15  C   UNL     1     -42.167-159.009 309.124  0.00  0.00    +0.000 C 
BRANCH  15  16
ATOM     16  O   UNL     1     -42.476-157.554 309.383  0.00  0.00    +0.000 OA
BRANCH  16  17
ATOM     17  C   UNL     1     -42.862-156.667 308.389  0.00  0.00    +0.000 C 
ATOM     18  O   UNL     1     -43.225-155.514 308.620  0.00  0.00    +0.000 OA
BRANCH  17  19
ATOM     19  C   UNL     1     -42.485-157.163 306.863  0.00  0.00    +0.000 C 
ATOM     20  C   UNL     1     -40.976-156.983 306.684  0.00  0.00    +0.000 C 
ATOM     21  C   UNL     1     -40.710-157.295 305.216  0.00  0.00    +0.000 C 
ATOM     22  C   UNL     1     -41.962-156.851 304.486  0.00  0.00    +0.000 C 
ATOM     23  N   UNL     1     -42.966-156.618 305.510  0.00  0.00    +0.000 N 
ATOM     24  C   UNL     1     -44.208-156.218 305.003  0.00  0.00    +0.000 C 
ATOM     25  O   UNL     1     -44.337-155.784 303.855  0.00  0.00    +0.000 OA
BRANCH  24  26
ATOM     26  C   UNL     1     -45.388-156.104 305.917  0.00  0.00    +0.000 C 
ATOM     27  C   UNL     1     -46.130-154.771 305.949  0.00  0.00    +0.000 C 
ATOM     28  C   UNL     1     -46.274-157.090 305.327  0.00  0.00    +0.000 C 
ENDBRANCH  24  26
ENDBRANCH  17  19
ENDBRANCH  16  17
ENDBRANCH  15  16
ENDBRANCH   7  15
TORSDOF 6
ENDMDL
MODEL 2
REMARK VINA RESULT:    -9.072      1.796      2.541
REMARK INTER + INTRA:         -12.700
REMARK INTER:                 -11.946
REMARK INTRA:                  -0.754
REMARK UNBOUND:                -0.446
REMARK  Name = 
REMARK  10 active torsions:
REMARK  status: ('A' for Active; 'I' for Inactive)
REMARK    1  A    between atoms: C_1  and  C_2
REMARK    2  A    between atoms: C_2  and  C_3
REMARK    3  A    between atoms: C_5  and  C_6
REMARK    4  A    between atoms: C_9  and  C_10
REMARK    5  A    between atoms: C_10  and  O_11
REMARK    6  A    between atoms: O_11  and  C_12
REMARK    7  A    between atoms: C_12  and  C_14
REMARK    8  A    between atoms: C_19  and  C_21
REMARK    9  A    between atoms: C_21  and  C_22
REMARK   10  A    between atoms: C_21  and  C_23
REMARK                            x       y       z     vdW  Elec       q    Type
REMARK                         _______ _______ _______ _____ _____    ______ ____
ROOT
ATOM      1  C   UNL     1     -41.460-161.365 313.571  0.00  0.00    +0.000 A 
ATOM      2  C   UNL     1     -41.810-159.967 313.465  0.00  0.00    +0.000 A 
ATOM      3  C   UNL     1     -41.719-159.300 312.300  0.00  0.00    +0.000 A 
ATOM      4  C   UNL     1     -42.079-157.861 312.158  0.00  0.00    +0.000 C 
ATOM      5  C   UNL     1     -41.337-160.033 311.044  0.00  0.00    +0.000 A 
ATOM      6  N   UNL     1     -41.306-159.407 309.898  0.00  0.00    +0.000 NA
ATOM      7  C   UNL     1     -41.049-160.111 308.734  0.00  0.00    +0.000 A 
ATOM      8  C   UNL     1     -41.098-161.472 308.757  0.00  0.00    +0.000 A 
ATOM      9  C   UNL     1     -40.828-162.160 310.088  0.00  0.00    +0.000 A 
ATOM     10  O   UNL     1     -40.312-163.262 310.109  0.00  0.00    +0.000 OA
ATOM     11  N   UNL     1     -41.067-161.381 311.209  0.00  0.00    +0.000 N 
ATOM     12  C   UNL     1     -41.044-161.993 312.454  0.00  0.00    +0.000 A 
ENDROOT
BRANCH   1  14
ATOM     13  C   UNL     1     -42.741-161.383 315.773  0.00  0.00    +0.000 C 
ATOM     14  C   UNL     1     -41.687-162.059 314.897  0.00  0.00    +0.000 C 
ENDBRANCH   1  14
BRANCH   7  15
ATOM     15  C   UNL     1     -40.652-159.203 307.462  0.00  0.00    +0.000 C 
BRANCH  15  16
ATOM     16  O   UNL     1     -41.671-158.489 306.607  0.00  0.00    +0.000 OA
BRANCH  16  17
ATOM     17  C   UNL     1     -41.467-157.228 306.066  0.00  0.00    +0.000 C 
ATOM     18  O   UNL     1     -40.771-157.027 305.072  0.00  0.00    +0.000 OA
BRANCH  17  19
ATOM     19  C   UNL     1     -42.484-156.073 306.654  0.00  0.00    +0.000 C 
ATOM     20  C   UNL     1     -42.058-155.779 308.095  0.00  0.00    +0.000 C 
ATOM     21  C   UNL     1     -43.124-154.836 308.640  0.00  0.00    +0.000 C 
ATOM     22  C   UNL     1     -44.404-155.239 307.935  0.00  0.00    +0.000 C 
ATOM     23  N   UNL     1     -44.007-156.115 306.846  0.00  0.00    +0.000 N 
ATOM     24  C   UNL     1     -45.078-156.568 306.066  0.00  0.00    +0.000 C 
ATOM     25  O   UNL     1     -46.245-156.510 306.461  0.00  0.00    +0.000 OA
BRANCH  24  26
ATOM     26  C   UNL     1     -44.816-157.339 304.810  0.00  0.00    +0.000 C 
ATOM     27  C   UNL     1     -45.977-158.122 304.206  0.00  0.00    +0.000 C 
ATOM     28  C   UNL     1     -44.492-156.255 303.900  0.00  0.00    +0.000 C 
ENDBRANCH  24  26
ENDBRANCH  17  19
ENDBRANCH  16  17
ENDBRANCH  15  16
ENDBRANCH   7  15
TORSDOF 6
ENDMDL
MODEL 3
REMARK VINA RESULT:    -9.069      2.215      3.977
REMARK INTER + INTRA:         -12.696
REMARK INTER:                 -11.705
REMARK INTRA:                  -0.990
REMARK UNBOUND:                -0.446
REMARK  Name = 
REMARK  10 active torsions:
REMARK  status: ('A' for Active; 'I' for Inactive)
REMARK    1  A    between atoms: C_1  and  C_2
REMARK    2  A    between atoms: C_2  and  C_3
REMARK    3  A    between atoms: C_5  and  C_6
REMARK    4  A    between atoms: C_9  and  C_10
REMARK    5  A    between atoms: C_10  and  O_11
REMARK    6  A    between atoms: O_11  and  C_12
REMARK    7  A    between atoms: C_12  and  C_14
REMARK    8  A    between atoms: C_19  and  C_21
REMARK    9  A    between atoms: C_21  and  C_22
REMARK   10  A    between atoms: C_21  and  C_23
REMARK                            x       y       z     vdW  Elec       q    Type
REMARK                         _______ _______ _______ _____ _____    ______ ____
ROOT
ATOM      1  C   UNL     1     -39.796-163.680 309.191  0.00  0.00    +0.000 A 
ATOM      2  C   UNL     1     -39.900-162.862 308.004  0.00  0.00    +0.000 A 
ATOM      3  C   UNL     1     -40.407-161.617 308.045  0.00  0.00    +0.000 A 
ATOM      4  C   UNL     1     -40.521-160.747 306.840  0.00  0.00    +0.000 C 
ATOM      5  C   UNL     1     -40.794-161.006 309.363  0.00  0.00    +0.000 A 
ATOM      6  N   UNL     1     -41.229-159.776 309.419  0.00  0.00    +0.000 NA
ATOM      7  C   UNL     1     -41.489-159.192 310.647  0.00  0.00    +0.000 A 
ATOM      8  C   UNL     1     -41.038-159.798 311.780  0.00  0.00    +0.000 A 
ATOM      9  C   UNL     1     -40.831-161.305 311.731  0.00  0.00    +0.000 A 
ATOM     10  O   UNL     1     -40.986-161.974 312.737  0.00  0.00    +0.000 OA
ATOM     11  N   UNL     1     -40.618-161.827 310.465  0.00  0.00    +0.000 N 
ATOM     12  C   UNL     1     -40.218-163.151 310.355  0.00  0.00    +0.000 A 
ENDROOT
BRANCH   1  14
ATOM     13  C   UNL     1     -38.638-165.353 307.656  0.00  0.00    +0.000 C 
ATOM     14  C   UNL     1     -39.123-165.030 309.070  0.00  0.00    +0.000 C 
ENDBRANCH   1  14
BRANCH   7  15
ATOM     15  C   UNL     1     -42.374-157.845 310.586  0.00  0.00    +0.000 C 
BRANCH  15  16
ATOM     16  O   UNL     1     -43.294-157.512 309.436  0.00  0.00    +0.000 OA
BRANCH  16  17
ATOM     17  C   UNL     1     -43.032-156.511 308.512  0.00  0.00    +0.000 C 
ATOM     18  O   UNL     1     -42.861-155.334 308.826  0.00  0.00    +0.000 OA
BRANCH  17  19
ATOM     19  C   UNL     1     -42.642-157.069 307.011  0.00  0.00    +0.000 C 
ATOM     20  C   UNL     1     -41.115-157.065 306.905  0.00  0.00    +0.000 C 
ATOM     21  C   UNL     1     -40.817-157.427 305.455  0.00  0.00    +0.000 C 
ATOM     22  C   UNL     1     -41.974-156.853 304.660  0.00  0.00    +0.000 C 
ATOM     23  N   UNL     1     -42.991-156.492 305.631  0.00  0.00    +0.000 N 
ATOM     24  C   UNL     1     -44.154-155.960 305.060  0.00  0.00    +0.000 C 
ATOM     25  O   UNL     1     -44.177-155.531 303.904  0.00  0.00    +0.000 OA
BRANCH  24  26
ATOM     26  C   UNL     1     -45.355-155.699 305.915  0.00  0.00    +0.000 C 
ATOM     27  C   UNL     1     -46.183-154.454 305.607  0.00  0.00    +0.000 C 
ATOM     28  C   UNL     1     -46.165-156.859 305.592  0.00  0.00    +0.000 C 
ENDBRANCH  24  26
ENDBRANCH  17  19
ENDBRANCH  16  17
ENDBRANCH  15  16
ENDBRANCH   7  15
TORSDOF 6
ENDMDL
MODEL 4
REMARK VINA RESULT:    -8.954      3.341      9.140
REMARK INTER + INTRA:         -12.541
REMARK INTER:                 -11.905
REMARK INTRA:                  -0.636
REMARK UNBOUND:                -0.446
REMARK  Name = 
REMARK  10 active torsions:
REMARK  status: ('A' for Active; 'I' for Inactive)
REMARK    1  A    between atoms: C_1  and  C_2
REMARK    2  A    between atoms: C_2  and  C_3
REMARK    3  A    between atoms: C_5  and  C_6
REMARK    4  A    between atoms: C_9  and  C_10
REMARK    5  A    between atoms: C_10  and  O_11
REMARK    6  A    between atoms: O_11  and  C_12
REMARK    7  A    between atoms: C_12  and  C_14
REMARK    8  A    between atoms: C_19  and  C_21
REMARK    9  A    between atoms: C_21  and  C_22
REMARK   10  A    between atoms: C_21  and  C_23
REMARK                            x       y       z     vdW  Elec       q    Type
REMARK                         _______ _______ _______ _____ _____    ______ ____
ROOT
ATOM      1  C   UNL     1     -43.792-155.165 305.017  0.00  0.00    +0.000 A 
ATOM      2  C   UNL     1     -42.450-155.585 304.685  0.00  0.00    +0.000 A 
ATOM      3  C   UNL     1     -41.730-156.370 305.505  0.00  0.00    +0.000 A 
ATOM      4  C   UNL     1     -40.347-156.825 305.186  0.00  0.00    +0.000 C 
ATOM      5  C   UNL     1     -42.353-156.914 306.761  0.00  0.00    +0.000 A 
ATOM      6  N   UNL     1     -41.681-157.727 307.532  0.00  0.00    +0.000 NA
ATOM      7  C   UNL     1     -42.296-158.300 308.632  0.00  0.00    +0.000 A 
ATOM      8  C   UNL     1     -43.652-158.227 308.748  0.00  0.00    +0.000 A 
ATOM      9  C   UNL     1     -44.351-157.065 308.057  0.00  0.00    +0.000 A 
ATOM     10  O   UNL     1     -45.375-156.604 308.528  0.00  0.00    +0.000 OA
ATOM     11  N   UNL     1     -43.658-156.515 306.990  0.00  0.00    +0.000 N 
ATOM     12  C   UNL     1     -44.312-155.595 306.183  0.00  0.00    +0.000 A 
ENDROOT
BRANCH   1  14
ATOM     13  C   UNL     1     -45.600-153.418 304.600  0.00  0.00    +0.000 C 
ATOM     14  C   UNL     1     -44.564-154.363 303.991  0.00  0.00    +0.000 C 
ENDBRANCH   1  14
BRANCH   7  15
ATOM     15  C   UNL     1     -41.292-158.957 309.709  0.00  0.00    +0.000 C 
BRANCH  15  16
ATOM     16  O   UNL     1     -40.417-160.149 309.403  0.00  0.00    +0.000 OA
BRANCH  16  17
ATOM     17  C   UNL     1     -40.667-161.034 308.365  0.00  0.00    +0.000 C 
ATOM     18  O   UNL     1     -40.367-160.801 307.195  0.00  0.00    +0.000 OA
BRANCH  17  19
ATOM     19  C   UNL     1     -41.094-162.547 308.861  0.00  0.00    +0.000 C 
ATOM     20  C   UNL     1     -41.633-162.425 310.288  0.00  0.00    +0.000 C 
ATOM     21  C   UNL     1     -41.854-163.859 310.754  0.00  0.00    +0.000 C 
ATOM     22  C   UNL     1     -40.783-164.670 310.051  0.00  0.00    +0.000 C 
ATOM     23  N   UNL     1     -40.226-163.804 309.027  0.00  0.00    +0.000 N 
ATOM     24  C   UNL     1     -39.226-164.409 308.257  0.00  0.00    +0.000 C 
ATOM     25  O   UNL     1     -38.648-165.434 308.626  0.00  0.00    +0.000 OA
BRANCH  24  26
ATOM     26  C   UNL     1     -38.676-163.704 307.056  0.00  0.00    +0.000 C 
ATOM     27  C   UNL     1     -37.501-162.755 307.271  0.00  0.00    +0.000 C 
ATOM     28  C   UNL     1     -38.196-164.836 306.285  0.00  0.00    +0.000 C 
ENDBRANCH  24  26
ENDBRANCH  17  19
ENDBRANCH  16  17
ENDBRANCH  15  16
ENDBRANCH   7  15
TORSDOF 6
ENDMDL
MODEL 5
REMARK VINA RESULT:    -8.895      3.354      5.403
REMARK INTER + INTRA:         -12.461
REMARK INTER:                 -11.665
REMARK INTRA:                  -0.796
REMARK UNBOUND:                -0.446
REMARK  Name = 
REMARK  10 active torsions:
REMARK  status: ('A' for Active; 'I' for Inactive)
REMARK    1  A    between atoms: C_1  and  C_2
REMARK    2  A    between atoms: C_2  and  C_3
REMARK    3  A    between atoms: C_5  and  C_6
REMARK    4  A    between atoms: C_9  and  C_10
REMARK    5  A    between atoms: C_10  and  O_11
REMARK    6  A    between atoms: O_11  and  C_12
REMARK    7  A    between atoms: C_12  and  C_14
REMARK    8  A    between atoms: C_19  and  C_21
REMARK    9  A    between atoms: C_21  and  C_22
REMARK   10  A    between atoms: C_21  and  C_23
REMARK                            x       y       z     vdW  Elec       q    Type
REMARK                         _______ _______ _______ _____ _____    ______ ____
ROOT
ATOM      1  C   UNL     1     -39.357-165.518 307.668  0.00  0.00    +0.000 A 
ATOM      2  C   UNL     1     -38.616-164.362 307.218  0.00  0.00    +0.000 A 
ATOM      3  C   UNL     1     -38.764-163.157 307.796  0.00  0.00    +0.000 A 
ATOM      4  C   UNL     1     -38.009-161.948 307.359  0.00  0.00    +0.000 C 
ATOM      5  C   UNL     1     -39.649-163.006 309.002  0.00  0.00    +0.000 A 
ATOM      6  N   UNL     1     -39.751-161.853 309.606  0.00  0.00    +0.000 NA
ATOM      7  C   UNL     1     -40.490-161.749 310.773  0.00  0.00    +0.000 A 
ATOM      8  C   UNL     1     -40.873-162.884 311.420  0.00  0.00    +0.000 A 
ATOM      9  C   UNL     1     -41.023-164.148 310.585  0.00  0.00    +0.000 A 
ATOM     10  O   UNL     1     -41.843-164.992 310.900  0.00  0.00    +0.000 OA
ATOM     11  N   UNL     1     -40.287-164.165 309.411  0.00  0.00    +0.000 N 
ATOM     12  C   UNL     1     -40.206-165.355 308.701  0.00  0.00    +0.000 A 
ENDROOT
BRANCH   1  14
ATOM     13  C   UNL     1     -38.669-166.755 305.549  0.00  0.00    +0.000 C 
ATOM     14  C   UNL     1     -39.054-166.855 307.025  0.00  0.00    +0.000 C 
ENDBRANCH   1  14
BRANCH   7  15
ATOM     15  C   UNL     1     -40.867-160.242 311.207  0.00  0.00    +0.000 C 
BRANCH  15  16
ATOM     16  O   UNL     1     -40.876-159.081 310.242  0.00  0.00    +0.000 OA
BRANCH  16  17
ATOM     17  C   UNL     1     -42.036-158.543 309.704  0.00  0.00    +0.000 C 
ATOM     18  O   UNL     1     -42.840-157.884 310.362  0.00  0.00    +0.000 OA
BRANCH  17  19
ATOM     19  C   UNL     1     -42.089-158.574 308.057  0.00  0.00    +0.000 C 
ATOM     20  C   UNL     1     -40.825-159.288 307.572  0.00  0.00    +0.000 C 
ATOM     21  C   UNL     1     -40.844-159.142 306.055  0.00  0.00    +0.000 C 
ATOM     22  C   UNL     1     -41.518-157.809 305.796  0.00  0.00    +0.000 C 
ATOM     23  N   UNL     1     -42.118-157.408 307.057  0.00  0.00    +0.000 N 
ATOM     24  C   UNL     1     -42.812-156.194 306.992  0.00  0.00    +0.000 C 
ATOM     25  O   UNL     1     -42.643-155.393 306.068  0.00  0.00    +0.000 OA
BRANCH  24  26
ATOM     26  C   UNL     1     -43.625-155.732 308.161  0.00  0.00    +0.000 C 
ATOM     27  C   UNL     1     -42.982-154.733 309.118  0.00  0.00    +0.000 C 
ATOM     28  C   UNL     1     -44.709-155.053 307.475  0.00  0.00    +0.000 C 
ENDBRANCH  24  26
ENDBRANCH  17  19
ENDBRANCH  16  17
ENDBRANCH  15  16
ENDBRANCH   7  15
TORSDOF 6
ENDMDL
MODEL 6
REMARK VINA RESULT:    -8.483      3.115      8.763
REMARK INTER + INTRA:         -11.905
REMARK INTER:                 -11.263
REMARK INTRA:                  -0.642
REMARK UNBOUND:                -0.446
REMARK  Name = 
REMARK  10 active torsions:
REMARK  status: ('A' for Active; 'I' for Inactive)
REMARK    1  A    between atoms: C_1  and  C_2
REMARK    2  A    between atoms: C_2  and  C_3
REMARK    3  A    between atoms: C_5  and  C_6
REMARK    4  A    between atoms: C_9  and  C_10
REMARK    5  A    between atoms: C_10  and  O_11
REMARK    6  A    between atoms: O_11  and  C_12
REMARK    7  A    between atoms: C_12  and  C_14
REMARK    8  A    between atoms: C_19  and  C_21
REMARK    9  A    between atoms: C_21  and  C_22
REMARK   10  A    between atoms: C_21  and  C_23
REMARK                            x       y       z     vdW  Elec       q    Type
REMARK                         _______ _______ _______ _____ _____    ______ ____
ROOT
ATOM      1  C   UNL     1     -43.920-155.853 305.197  0.00  0.00    +0.000 A 
ATOM      2  C   UNL     1     -44.788-155.892 306.351  0.00  0.00    +0.000 A 
ATOM      3  C   UNL     1     -44.539-156.698 307.398  0.00  0.00    +0.000 A 
ATOM      4  C   UNL     1     -45.412-156.755 308.605  0.00  0.00    +0.000 C 
ATOM      5  C   UNL     1     -43.281-157.521 307.430  0.00  0.00    +0.000 A 
ATOM      6  N   UNL     1     -43.001-158.260 308.470  0.00  0.00    +0.000 NA
ATOM      7  C   UNL     1     -41.794-158.935 308.531  0.00  0.00    +0.000 A 
ATOM      8  C   UNL     1     -40.808-158.614 307.648  0.00  0.00    +0.000 A 
ATOM      9  C   UNL     1     -41.231-158.019 306.313  0.00  0.00    +0.000 A 
ATOM     10  O   UNL     1     -40.561-158.221 305.317  0.00  0.00    +0.000 OA
ATOM     11  N   UNL     1     -42.469-157.395 306.316  0.00  0.00    +0.000 N 
ATOM     12  C   UNL     1     -42.835-156.652 305.202  0.00  0.00    +0.000 A 
ENDROOT
BRANCH   1  14
ATOM     13  C   UNL     1     -45.148-153.714 304.558  0.00  0.00    +0.000 C 
ATOM     14  C   UNL     1     -44.222-154.845 304.109  0.00  0.00    +0.000 C 
ENDBRANCH   1  14
BRANCH   7  15
ATOM     15  C   UNL     1     -41.721-160.100 309.644  0.00  0.00    +0.000 C 
BRANCH  15  16
ATOM     16  O   UNL     1     -40.592-160.223 310.639  0.00  0.00    +0.000 OA
BRANCH  16  17
ATOM     17  C   UNL     1     -40.028-161.435 311.009  0.00  0.00    +0.000 C 
ATOM     18  O   UNL     1     -39.218-161.547 311.928  0.00  0.00    +0.000 OA
BRANCH  17  19
ATOM     19  C   UNL     1     -40.768-162.750 310.347  0.00  0.00    +0.000 C 
ATOM     20  C   UNL     1     -41.339-163.581 311.498  0.00  0.00    +0.000 C 
ATOM     21  C   UNL     1     -41.861-164.856 310.846  0.00  0.00    +0.000 C 
ATOM     22  C   UNL     1     -40.939-165.101 309.667  0.00  0.00    +0.000 C 
ATOM     23  N   UNL     1     -40.175-163.879 309.491  0.00  0.00    +0.000 N 
ATOM     24  C   UNL     1     -39.279-163.923 308.416  0.00  0.00    +0.000 C 
ATOM     25  O   UNL     1     -38.932-164.987 307.897  0.00  0.00    +0.000 OA
BRANCH  24  26
ATOM     26  C   UNL     1     -38.544-162.686 308.003  0.00  0.00    +0.000 C 
ATOM     27  C   UNL     1     -37.412-162.841 306.992  0.00  0.00    +0.000 C 
ATOM     28  C   UNL     1     -39.615-161.948 307.358  0.00  0.00    +0.000 C 
ENDBRANCH  24  26
ENDBRANCH  17  19
ENDBRANCH  16  17
ENDBRANCH  15  16
ENDBRANCH   7  15
TORSDOF 6
ENDMDL
MODEL 7
REMARK VINA RESULT:    -8.416      3.682      8.679
REMARK INTER + INTRA:         -11.814
REMARK INTER:                 -11.748
REMARK INTRA:                  -0.066
REMARK UNBOUND:                -0.446
REMARK  Name = 
REMARK  10 active torsions:
REMARK  status: ('A' for Active; 'I' for Inactive)
REMARK    1  A    between atoms: C_1  and  C_2
REMARK    2  A    between atoms: C_2  and  C_3
REMARK    3  A    between atoms: C_5  and  C_6
REMARK    4  A    between atoms: C_9  and  C_10
REMARK    5  A    between atoms: C_10  and  O_11
REMARK    6  A    between atoms: O_11  and  C_12
REMARK    7  A    between atoms: C_12  and  C_14
REMARK    8  A    between atoms: C_19  and  C_21
REMARK    9  A    between atoms: C_21  and  C_22
REMARK   10  A    between atoms: C_21  and  C_23
REMARK                            x       y       z     vdW  Elec       q    Type
REMARK                         _______ _______ _______ _____ _____    ______ ____
ROOT
ATOM      1  C   UNL     1     -43.660-155.869 307.322  0.00  0.00    +0.000 A 
ATOM      2  C   UNL     1     -43.032-156.278 306.086  0.00  0.00    +0.000 A 
ATOM      3  C   UNL     1     -42.127-157.272 306.046  0.00  0.00    +0.000 A 
ATOM      4  C   UNL     1     -41.469-157.721 304.787  0.00  0.00    +0.000 C 
ATOM      5  C   UNL     1     -41.816-158.054 307.293  0.00  0.00    +0.000 A 
ATOM      6  N   UNL     1     -40.984-159.060 307.250  0.00  0.00    +0.000 NA
ATOM      7  C   UNL     1     -40.780-159.834 308.380  0.00  0.00    +0.000 A 
ATOM      8  C   UNL     1     -41.635-159.711 309.433  0.00  0.00    +0.000 A 
ATOM      9  C   UNL     1     -42.361-158.383 309.593  0.00  0.00    +0.000 A 
ATOM     10  O   UNL     1     -42.662-157.984 310.703  0.00  0.00    +0.000 OA
ATOM     11  N   UNL     1     -42.492-157.643 308.428  0.00  0.00    +0.000 N 
ATOM     12  C   UNL     1     -43.315-156.525 308.446  0.00  0.00    +0.000 A 
ENDROOT
BRANCH   1  14
ATOM     13  C   UNL     1     -45.544-154.828 305.959  0.00  0.00    +0.000 C 
ATOM     14  C   UNL     1     -44.738-154.809 307.257  0.00  0.00    +0.000 C 
ENDBRANCH   1  14
BRANCH   7  15
ATOM     15  C   UNL     1     -39.474-160.778 308.331  0.00  0.00    +0.000 C 
BRANCH  15  16
ATOM     16  O   UNL     1     -39.437-162.101 307.604  0.00  0.00    +0.000 OA
BRANCH  16  17
ATOM     17  C   UNL     1     -38.262-162.723 307.207  0.00  0.00    +0.000 C 
ATOM     18  O   UNL     1     -37.238-162.105 306.921  0.00  0.00    +0.000 OA
BRANCH  17  19
ATOM     19  C   UNL     1     -38.244-164.350 307.463  0.00  0.00    +0.000 C 
ATOM     20  C   UNL     1     -37.786-165.013 306.162  0.00  0.00    +0.000 C 
ATOM     21  C   UNL     1     -37.947-166.510 306.401  0.00  0.00    +0.000 C 
ATOM     22  C   UNL     1     -39.133-166.634 307.338  0.00  0.00    +0.000 C 
ATOM     23  N   UNL     1     -39.396-165.296 307.836  0.00  0.00    +0.000 N 
ATOM     24  C   UNL     1     -40.460-165.230 308.744  0.00  0.00    +0.000 C 
ATOM     25  O   UNL     1     -41.290-166.136 308.845  0.00  0.00    +0.000 OA
BRANCH  24  26
ATOM     26  C   UNL     1     -40.744-163.953 309.472  0.00  0.00    +0.000 C 
ATOM     27  C   UNL     1     -41.978-163.160 309.051  0.00  0.00    +0.000 C 
ATOM     28  C   UNL     1     -40.980-164.461 310.811  0.00  0.00    +0.000 C 
ENDBRANCH  24  26
ENDBRANCH  17  19
ENDBRANCH  16  17
ENDBRANCH  15  16
ENDBRANCH   7  15
TORSDOF 6
ENDMDL
MODEL 8
REMARK VINA RESULT:    -8.253      3.105      4.752
REMARK INTER + INTRA:         -11.593
REMARK INTER:                 -11.211
REMARK INTRA:                  -0.382
REMARK UNBOUND:                -0.446
REMARK  Name = 
REMARK  10 active torsions:
REMARK  status: ('A' for Active; 'I' for Inactive)
REMARK    1  A    between atoms: C_1  and  C_2
REMARK    2  A    between atoms: C_2  and  C_3
REMARK    3  A    between atoms: C_5  and  C_6
REMARK    4  A    between atoms: C_9  and  C_10
REMARK    5  A    between atoms: C_10  and  O_11
REMARK    6  A    between atoms: O_11  and  C_12
REMARK    7  A    between atoms: C_12  and  C_14
REMARK    8  A    between atoms: C_19  and  C_21
REMARK    9  A    between atoms: C_21  and  C_22
REMARK   10  A    between atoms: C_21  and  C_23
REMARK                            x       y       z     vdW  Elec       q    Type
REMARK                         _______ _______ _______ _____ _____    ______ ____
ROOT
ATOM      1  C   UNL     1     -39.103-165.242 308.194  0.00  0.00    +0.000 A 
ATOM      2  C   UNL     1     -40.164-165.436 309.156  0.00  0.00    +0.000 A 
ATOM      3  C   UNL     1     -40.875-164.404 309.645  0.00  0.00    +0.000 A 
ATOM      4  C   UNL     1     -41.979-164.573 310.632  0.00  0.00    +0.000 C 
ATOM      5  C   UNL     1     -40.638-163.015 309.121  0.00  0.00    +0.000 A 
ATOM      6  N   UNL     1     -41.365-162.017 309.545  0.00  0.00    +0.000 NA
ATOM      7  C   UNL     1     -41.206-160.760 308.985  0.00  0.00    +0.000 A 
ATOM      8  C   UNL     1     -40.498-160.634 307.828  0.00  0.00    +0.000 A 
ATOM      9  C   UNL     1     -39.443-161.691 307.535  0.00  0.00    +0.000 A 
ATOM     10  O   UNL     1     -38.445-161.395 306.902  0.00  0.00    +0.000 OA
ATOM     11  N   UNL     1     -39.644-162.910 308.163  0.00  0.00    +0.000 N 
ATOM     12  C   UNL     1     -38.848-163.983 307.789  0.00  0.00    +0.000 A 
ENDROOT
BRANCH   1  14
ATOM     13  C   UNL     1     -39.165-167.090 306.441  0.00  0.00    +0.000 C 
ATOM     14  C   UNL     1     -38.424-166.469 307.624  0.00  0.00    +0.000 C 
ENDBRANCH   1  14
BRANCH   7  15
ATOM     15  C   UNL     1     -41.854-159.550 309.831  0.00  0.00    +0.000 C 
BRANCH  15  16
ATOM     16  O   UNL     1     -41.984-158.144 309.296  0.00  0.00    +0.000 OA
BRANCH  16  17
ATOM     17  C   UNL     1     -42.991-157.747 308.428  0.00  0.00    +0.000 C 
ATOM     18  O   UNL     1     -44.064-157.283 308.810  0.00  0.00    +0.000 OA
BRANCH  17  19
ATOM     19  C   UNL     1     -42.515-157.639 306.854  0.00  0.00    +0.000 C 
ATOM     20  C   UNL     1     -40.985-157.610 306.839  0.00  0.00    +0.000 C 
ATOM     21  C   UNL     1     -40.607-157.343 305.388  0.00  0.00    +0.000 C 
ATOM     22  C   UNL     1     -41.726-156.477 304.842  0.00  0.00    +0.000 C 
ATOM     23  N   UNL     1     -42.797-156.538 305.820  0.00  0.00    +0.000 N 
ATOM     24  C   UNL     1     -43.934-155.804 305.460  0.00  0.00    +0.000 C 
ATOM     25  O   UNL     1     -43.900-154.934 304.586  0.00  0.00    +0.000 OA
BRANCH  24  26
ATOM     26  C   UNL     1     -45.181-155.904 306.281  0.00  0.00    +0.000 C 
ATOM     27  C   UNL     1     -46.154-154.730 306.236  0.00  0.00    +0.000 C 
ATOM     28  C   UNL     1     -45.826-157.037 305.642  0.00  0.00    +0.000 C 
ENDBRANCH  24  26
ENDBRANCH  17  19
ENDBRANCH  16  17
ENDBRANCH  15  16
ENDBRANCH   7  15
TORSDOF 6
ENDMDL
MODEL 9
REMARK VINA RESULT:    -7.959      1.706      2.867
REMARK INTER + INTRA:         -11.197
REMARK INTER:                 -11.865
REMARK INTRA:                   0.668
REMARK UNBOUND:                -0.446
REMARK  Name = 
REMARK  10 active torsions:
REMARK  status: ('A' for Active; 'I' for Inactive)
REMARK    1  A    between atoms: C_1  and  C_2
REMARK    2  A    between atoms: C_2  and  C_3
REMARK    3  A    between atoms: C_5  and  C_6
REMARK    4  A    between atoms: C_9  and  C_10
REMARK    5  A    between atoms: C_10  and  O_11
REMARK    6  A    between atoms: O_11  and  C_12
REMARK    7  A    between atoms: C_12  and  C_14
REMARK    8  A    between atoms: C_19  and  C_21
REMARK    9  A    between atoms: C_21  and  C_22
REMARK   10  A    between atoms: C_21  and  C_23
REMARK                            x       y       z     vdW  Elec       q    Type
REMARK                         _______ _______ _______ _____ _____    ______ ____
ROOT
ATOM      1  C   UNL     1     -41.454-161.591 313.501  0.00  0.00    +0.000 A 
ATOM      2  C   UNL     1     -41.861-160.208 313.406  0.00  0.00    +0.000 A 
ATOM      3  C   UNL     1     -41.813-159.533 312.244  0.00  0.00    +0.000 A 
ATOM      4  C   UNL     1     -42.233-158.109 312.113  0.00  0.00    +0.000 C 
ATOM      5  C   UNL     1     -41.418-160.244 310.979  0.00  0.00    +0.000 A 
ATOM      6  N   UNL     1     -41.427-159.613 309.836  0.00  0.00    +0.000 NA
ATOM      7  C   UNL     1     -41.157-160.301 308.666  0.00  0.00    +0.000 A 
ATOM      8  C   UNL     1     -41.151-161.663 308.682  0.00  0.00    +0.000 A 
ATOM      9  C   UNL     1     -40.835-162.345 310.006  0.00  0.00    +0.000 A 
ATOM     10  O   UNL     1     -40.274-163.425 310.016  0.00  0.00    +0.000 OA
ATOM     11  N   UNL     1     -41.091-161.581 311.134  0.00  0.00    +0.000 N 
ATOM     12  C   UNL     1     -41.027-162.197 312.376  0.00  0.00    +0.000 A 
ENDROOT
BRANCH   1  14
ATOM     13  C   UNL     1     -42.426-161.490 315.854  0.00  0.00    +0.000 C 
ATOM     14  C   UNL     1     -41.635-162.299 314.827  0.00  0.00    +0.000 C 
ENDBRANCH   1  14
BRANCH   7  15
ATOM     15  C   UNL     1     -40.815-159.372 307.393  0.00  0.00    +0.000 C 
BRANCH  15  16
ATOM     16  O   UNL     1     -41.391-157.990 307.200  0.00  0.00    +0.000 OA
BRANCH  16  17
ATOM     17  C   UNL     1     -41.999-157.572 306.025  0.00  0.00    +0.000 C 
ATOM     18  O   UNL     1     -41.410-157.516 304.946  0.00  0.00    +0.000 OA
BRANCH  17  19
ATOM     19  C   UNL     1     -43.641-157.474 306.117  0.00  0.00    +0.000 C 
ATOM     20  C   UNL     1     -44.199-157.833 304.738  0.00  0.00    +0.000 C 
ATOM     21  C   UNL     1     -45.696-157.566 304.834  0.00  0.00    +0.000 C 
ATOM     22  C   UNL     1     -45.829-156.408 305.803  0.00  0.00    +0.000 C 
ATOM     23  N   UNL     1     -44.532-156.266 306.443  0.00  0.00    +0.000 N 
ATOM     24  C   UNL     1     -44.482-155.243 307.398  0.00  0.00    +0.000 C 
ATOM     25  O   UNL     1     -45.331-154.349 307.444  0.00  0.00    +0.000 OA
BRANCH  24  26
ATOM     26  C   UNL     1     -43.269-155.084 308.260  0.00  0.00    +0.000 C 
ATOM     27  C   UNL     1     -42.762-156.317 309.001  0.00  0.00    +0.000 C 
ATOM     28  C   UNL     1     -42.280-154.731 307.259  0.00  0.00    +0.000 C 
ENDBRANCH  24  26
ENDBRANCH  17  19
ENDBRANCH  16  17
ENDBRANCH  15  16
ENDBRANCH   7  15
TORSDOF 6
ENDMDL
MODEL 10
REMARK VINA RESULT:    -7.721      2.955      8.866
REMARK INTER + INTRA:         -10.874
REMARK INTER:                 -10.779
REMARK INTRA:                  -0.096
REMARK UNBOUND:                -0.446
REMARK  Name = 
REMARK  10 active torsions:
REMARK  status: ('A' for Active; 'I' for Inactive)
REMARK    1  A    between atoms: C_1  and  C_2
REMARK    2  A    between atoms: C_2  and  C_3
REMARK    3  A    between atoms: C_5  and  C_6
REMARK    4  A    between atoms: C_9  and  C_10
REMARK    5  A    between atoms: C_10  and  O_11
REMARK    6  A    between atoms: O_11  and  C_12
REMARK    7  A    between atoms: C_12  and  C_14
REMARK    8  A    between atoms: C_19  and  C_21
REMARK    9  A    between atoms: C_21  and  C_22
REMARK   10  A    between atoms: C_21  and  C_23
REMARK                            x       y       z     vdW  Elec       q    Type
REMARK                         _______ _______ _______ _____ _____    ______ ____
ROOT
ATOM      1  C   UNL     1     -44.038-155.545 305.260  0.00  0.00    +0.000 A 
ATOM      2  C   UNL     1     -44.851-156.115 306.310  0.00  0.00    +0.000 A 
ATOM      3  C   UNL     1     -44.383-157.077 307.125  0.00  0.00    +0.000 A 
ATOM      4  C   UNL     1     -45.195-157.679 308.221  0.00  0.00    +0.000 C 
ATOM      5  C   UNL     1     -42.950-157.518 307.020  0.00  0.00    +0.000 A 
ATOM      6  N   UNL     1     -42.470-158.407 307.848  0.00  0.00    +0.000 NA
ATOM      7  C   UNL     1     -41.125-158.734 307.806  0.00  0.00    +0.000 A 
ATOM      8  C   UNL     1     -40.271-157.943 307.099  0.00  0.00    +0.000 A 
ATOM      9  C   UNL     1     -40.854-157.146 305.940  0.00  0.00    +0.000 A 
ATOM     10  O   UNL     1     -40.165-156.894 304.968  0.00  0.00    +0.000 OA
ATOM     11  N   UNL     1     -42.214-156.893 306.028  0.00  0.00    +0.000 N 
ATOM     12  C   UNL     1     -42.779-156.004 305.125  0.00  0.00    +0.000 A 
ENDROOT
BRANCH   1  14
ATOM     13  C   UNL     1     -45.899-153.818 305.042  0.00  0.00    +0.000 C 
ATOM     14  C   UNL     1     -44.613-154.400 304.455  0.00  0.00    +0.000 C 
ENDBRANCH   1  14
BRANCH   7  15
ATOM     15  C   UNL     1     -40.730-160.091 308.582  0.00  0.00    +0.000 C 
BRANCH  15  16
ATOM     16  O   UNL     1     -40.570-161.423 307.888  0.00  0.00    +0.000 OA
BRANCH  16  17
ATOM     17  C   UNL     1     -39.349-162.062 307.732  0.00  0.00    +0.000 C 
ATOM     18  O   UNL     1     -38.331-161.484 307.354  0.00  0.00    +0.000 OA
BRANCH  17  19
ATOM     19  C   UNL     1     -39.288-163.566 308.401  0.00  0.00    +0.000 C 
ATOM     20  C   UNL     1     -39.142-164.571 307.256  0.00  0.00    +0.000 C 
ATOM     21  C   UNL     1     -39.258-165.941 307.912  0.00  0.00    +0.000 C 
ATOM     22  C   UNL     1     -40.203-165.740 309.081  0.00  0.00    +0.000 C 
ATOM     23  N   UNL     1     -40.335-164.303 309.250  0.00  0.00    +0.000 N 
ATOM     24  C   UNL     1     -41.165-163.933 310.316  0.00  0.00    +0.000 C 
ATOM     25  O   UNL     1     -41.959-164.725 310.830  0.00  0.00    +0.000 OA
BRANCH  24  26
ATOM     26  C   UNL     1     -41.266-162.496 310.722  0.00  0.00    +0.000 C 
ATOM     27  C   UNL     1     -42.642-161.839 310.657  0.00  0.00    +0.000 C 
ATOM     28  C   UNL     1     -40.886-162.591 312.119  0.00  0.00    +0.000 C 
ENDBRANCH  24  26
ENDBRANCH  17  19
ENDBRANCH  16  17
ENDBRANCH  15  16
ENDBRANCH   7  15
TORSDOF 6
ENDMDL
