MODEL 1
REMARK VINA RESULT:    -9.076      0.000      0.000
REMARK INTER + INTRA:         -12.964
REMARK INTER:                 -12.260
REMARK INTRA:                  -0.704
REMARK UNBOUND:                -0.704
REMARK  Name = 
REMARK  7 active torsions:
REMARK  status: ('A' for Active; 'I' for Inactive)
REMARK    1  A    between atoms: C_1  and  C_2
REMARK    2  A    between atoms: C_2  and  C_3
REMARK    3  A    between atoms: C_3  and  C_4
REMARK    4  A    between atoms: C_7  and  N_8
REMARK    5  A    between atoms: C_9  and  C_11
REMARK    6  A    between atoms: C_11  and  S_12
REMARK    7  A    between atoms: S_12  and  C_13
REMARK                            x       y       z     vdW  Elec       q    Type
REMARK                         _______ _______ _______ _____ _____    ______ ____
ROOT
ATOM      1  N   UNL     1     -42.261-160.908 309.425  0.00  0.00    +0.000 N 
ATOM      2  C   UNL     1     -42.251-162.212 309.842  0.00  0.00    +0.000 C 
ATOM      3  O   UNL     1     -43.276-162.878 309.760  0.00  0.00    +0.000 OA
ATOM      4  H   UNL     1     -43.116-160.663 308.934  0.00  0.00    +0.000 HD
ENDROOT
BRANCH   1   8
ATOM      5  C   UNL     1     -42.433-157.363 308.703  0.00  0.00    +0.000 C 
ATOM      6  C   UNL     1     -42.634-157.951 310.103  0.00  0.00    +0.000 C 
ATOM      7  C   UNL     1     -41.471-158.840 310.519  0.00  0.00    +0.000 C 
ATOM      8  C   UNL     1     -41.173-159.937 309.502  0.00  0.00    +0.000 C 
ATOM      9  C   UNL     1     -40.873-159.348 308.140  0.00  0.00    +0.000 C 
ATOM     10  C   UNL     1     -41.982-158.430 307.717  0.00  0.00    +0.000 C 
BRANCH   5  11
ATOM     11  C   UNL     1     -43.740-156.695 308.227  0.00  0.00    +0.000 C 
BRANCH  11  13
ATOM     12  C   UNL     1     -42.367-154.795 307.073  0.00  0.00    +0.000 C 
ATOM     13  C   UNL     1     -43.630-155.210 307.838  0.00  0.00    +0.000 C 
ENDBRANCH  11  13
ENDBRANCH   5  11
ENDBRANCH   1   8
BRANCH   2  14
ATOM     14  C   UNL     1     -41.012-162.743 310.526  0.00  0.00    +0.000 C 
BRANCH  14  15
ATOM     15  S   UNL     1     -40.396-164.314 309.887  0.00  0.00    +0.000 S 
BRANCH  15  16
ATOM     16  C   UNL     1     -39.396-163.909 308.541  0.00  0.00    +0.000 A 
ATOM     17  N   UNL     1     -38.710-162.808 308.333  0.00  0.00    +0.000 NA
ATOM     18  N   UNL     1     -37.909-163.015 307.218  0.00  0.00    +0.000 NA
ATOM     19  C   UNL     1     -38.121-164.244 306.791  0.00  0.00    +0.000 A 
ATOM     20  C   UNL     1     -37.583-165.017 305.723  0.00  0.00    +0.000 A 
ATOM     21  C   UNL     1     -38.005-166.286 305.538  0.00  0.00    +0.000 A 
ATOM     22  C   UNL     1     -39.004-166.891 306.405  0.00  0.00    +0.000 A 
ATOM     23  C   UNL     1     -39.508-166.167 307.415  0.00  0.00    +0.000 A 
ATOM     24  N   UNL     1     -39.068-164.856 307.601  0.00  0.00    +0.000 N 
ENDBRANCH  15  16
ENDBRANCH  14  15
ENDBRANCH   2  14
TORSDOF 6
ENDMDL
MODEL 2
REMARK VINA RESULT:    -8.871      4.247      6.014
REMARK INTER + INTRA:         -12.687
REMARK INTER:                 -11.978
REMARK INTRA:                  -0.709
REMARK UNBOUND:                -0.704
REMARK  Name = 
REMARK  7 active torsions:
REMARK  status: ('A' for Active; 'I' for Inactive)
REMARK    1  A    between atoms: C_1  and  C_2
REMARK    2  A    between atoms: C_2  and  C_3
REMARK    3  A    between atoms: C_3  and  C_4
REMARK    4  A    between atoms: C_7  and  N_8
REMARK    5  A    between atoms: C_9  and  C_11
REMARK    6  A    between atoms: C_11  and  S_12
REMARK    7  A    between atoms: S_12  and  C_13
REMARK                            x       y       z     vdW  Elec       q    Type
REMARK                         _______ _______ _______ _____ _____    ______ ____
ROOT
ATOM      1  N   UNL     1     -42.283-157.601 307.334  0.00  0.00    +0.000 N 
ATOM      2  C   UNL     1     -41.297-158.546 307.433  0.00  0.00    +0.000 C 
ATOM      3  O   UNL     1     -40.775-158.981 306.414  0.00  0.00    +0.000 OA
ATOM      4  H   UNL     1     -42.380-157.238 306.390  0.00  0.00    +0.000 HD
ENDROOT
BRANCH   1   8
ATOM      5  C   UNL     1     -44.942-155.161 307.032  0.00  0.00    +0.000 C 
ATOM      6  C   UNL     1     -45.181-156.674 307.051  0.00  0.00    +0.000 C 
ATOM      7  C   UNL     1     -44.552-157.334 308.269  0.00  0.00    +0.000 C 
ATOM      8  C   UNL     1     -43.068-157.012 308.415  0.00  0.00    +0.000 C 
ATOM      9  C   UNL     1     -42.842-155.518 308.500  0.00  0.00    +0.000 C 
ATOM     10  C   UNL     1     -43.488-154.830 307.334  0.00  0.00    +0.000 C 
BRANCH   5  11
ATOM     11  C   UNL     1     -45.362-154.585 305.663  0.00  0.00    +0.000 C 
BRANCH  11  13
ATOM     12  C   UNL     1     -43.903-155.696 303.802  0.00  0.00    +0.000 C 
ATOM     13  C   UNL     1     -44.237-154.443 304.622  0.00  0.00    +0.000 C 
ENDBRANCH  11  13
ENDBRANCH   5  11
ENDBRANCH   1   8
BRANCH   2  14
ATOM     14  C   UNL     1     -40.987-159.127 308.795  0.00  0.00    +0.000 C 
BRANCH  14  15
ATOM     15  S   UNL     1     -42.091-160.449 309.334  0.00  0.00    +0.000 S 
BRANCH  15  16
ATOM     16  C   UNL     1     -41.435-161.026 310.822  0.00  0.00    +0.000 A 
ATOM     17  N   UNL     1     -40.220-161.463 311.066  0.00  0.00    +0.000 NA
ATOM     18  N   UNL     1     -40.101-161.632 312.438  0.00  0.00    +0.000 NA
ATOM     19  C   UNL     1     -41.244-161.276 312.990  0.00  0.00    +0.000 A 
ATOM     20  C   UNL     1     -41.705-161.212 314.336  0.00  0.00    +0.000 A 
ATOM     21  C   UNL     1     -42.960-160.787 314.592  0.00  0.00    +0.000 A 
ATOM     22  C   UNL     1     -43.864-160.392 313.524  0.00  0.00    +0.000 A 
ATOM     23  C   UNL     1     -43.431-160.445 312.256  0.00  0.00    +0.000 A 
ATOM     24  N   UNL     1     -42.132-160.885 311.997  0.00  0.00    +0.000 N 
ENDBRANCH  15  16
ENDBRANCH  14  15
ENDBRANCH   2  14
TORSDOF 6
ENDMDL
MODEL 3
REMARK VINA RESULT:    -8.835      2.318      7.465
REMARK INTER + INTRA:         -12.638
REMARK INTER:                 -12.043
REMARK INTRA:                  -0.595
REMARK UNBOUND:                -0.704
REMARK  Name = 
REMARK  7 active torsions:
REMARK  status: ('A' for Active; 'I' for Inactive)
REMARK    1  A    between atoms: C_1  and  C_2
REMARK    2  A    between atoms: C_2  and  C_3
REMARK    3  A    between atoms: C_3  and  C_4
REMARK    4  A    between atoms: C_7  and  N_8
REMARK    5  A    between atoms: C_9  and  C_11
REMARK    6  A    between atoms: C_11  and  S_12
REMARK    7  A    between atoms: S_12  and  C_13
REMARK                            x       y       z     vdW  Elec       q    Type
REMARK                         _______ _______ _______ _____ _____    ______ ____
ROOT
ATOM      1  N   UNL     1     -40.257-162.543 310.494  0.00  0.00    +0.000 N 
ATOM      2  C   UNL     1     -40.616-161.511 311.319  0.00  0.00    +0.000 C 
ATOM      3  O   UNL     1     -39.830-161.124 312.175  0.00  0.00    +0.000 OA
ATOM      4  H   UNL     1     -39.277-162.793 310.587  0.00  0.00    +0.000 HD
ENDROOT
BRANCH   1   8
ATOM      5  C   UNL     1     -39.088-164.579 307.736  0.00  0.00    +0.000 C 
ATOM      6  C   UNL     1     -39.507-165.154 309.092  0.00  0.00    +0.000 C 
ATOM      7  C   UNL     1     -40.906-164.705 309.493  0.00  0.00    +0.000 C 
ATOM      8  C   UNL     1     -41.069-163.189 309.467  0.00  0.00    +0.000 C 
ATOM      9  C   UNL     1     -40.754-162.632 308.095  0.00  0.00    +0.000 C 
ATOM     10  C   UNL     1     -39.397-163.092 307.649  0.00  0.00    +0.000 C 
BRANCH   5  11
ATOM     11  C   UNL     1     -37.586-164.841 307.502  0.00  0.00    +0.000 C 
BRANCH  11  13
ATOM     12  C   UNL     1     -38.334-166.098 305.337  0.00  0.00    +0.000 C 
ATOM     13  C   UNL     1     -37.247-165.851 306.391  0.00  0.00    +0.000 C 
ENDBRANCH  11  13
ENDBRANCH   5  11
ENDBRANCH   1   8
BRANCH   2  14
ATOM     14  C   UNL     1     -42.029-160.980 311.241  0.00  0.00    +0.000 C 
BRANCH  14  15
ATOM     15  S   UNL     1     -42.167-159.203 310.957  0.00  0.00    +0.000 S 
BRANCH  15  16
ATOM     16  C   UNL     1     -41.582-158.941 309.355  0.00  0.00    +0.000 A 
ATOM     17  N   UNL     1     -40.613-159.567 308.725  0.00  0.00    +0.000 NA
ATOM     18  N   UNL     1     -40.633-159.149 307.401  0.00  0.00    +0.000 NA
ATOM     19  C   UNL     1     -41.626-158.293 307.263  0.00  0.00    +0.000 A 
ATOM     20  C   UNL     1     -42.144-157.563 306.155  0.00  0.00    +0.000 A 
ATOM     21  C   UNL     1     -43.205-156.749 306.329  0.00  0.00    +0.000 A 
ATOM     22  C   UNL     1     -43.840-156.591 307.628  0.00  0.00    +0.000 A 
ATOM     23  C   UNL     1     -43.358-157.281 308.672  0.00  0.00    +0.000 A 
ATOM     24  N   UNL     1     -42.261-158.122 308.485  0.00  0.00    +0.000 N 
ENDBRANCH  15  16
ENDBRANCH  14  15
ENDBRANCH   2  14
TORSDOF 6
ENDMDL
MODEL 4
REMARK VINA RESULT:    -8.822      3.972      6.096
REMARK INTER + INTRA:         -12.620
REMARK INTER:                 -12.409
REMARK INTRA:                  -0.211
REMARK UNBOUND:                -0.704
REMARK  Name = 
REMARK  7 active torsions:
REMARK  status: ('A' for Active; 'I' for Inactive)
REMARK    1  A    between atoms: C_1  and  C_2
REMARK    2  A    between atoms: C_2  and  C_3
REMARK    3  A    between atoms: C_3  and  C_4
REMARK    4  A    between atoms: C_7  and  N_8
REMARK    5  A    between atoms: C_9  and  C_11
REMARK    6  A    between atoms: C_11  and  S_12
REMARK    7  A    between atoms: S_12  and  C_13
REMARK                            x       y       z     vdW  Elec       q    Type
REMARK                         _______ _______ _______ _____ _____    ______ ____
ROOT
ATOM      1  N   UNL     1     -42.129-156.485 305.511  0.00  0.00    +0.000 N 
ATOM      2  C   UNL     1     -41.148-157.384 305.832  0.00  0.00    +0.000 C 
ATOM      3  O   UNL     1     -40.601-158.021 304.940  0.00  0.00    +0.000 OA
ATOM      4  H   UNL     1     -42.203-156.329 304.511  0.00  0.00    +0.000 HD
ENDROOT
BRANCH   1   8
ATOM      5  C   UNL     1     -45.717-156.655 305.975  0.00  0.00    +0.000 C 
ATOM      6  C   UNL     1     -44.718-157.455 306.816  0.00  0.00    +0.000 C 
ATOM      7  C   UNL     1     -43.661-156.560 307.447  0.00  0.00    +0.000 C 
ATOM      8  C   UNL     1     -42.941-155.686 306.425  0.00  0.00    +0.000 C 
ATOM      9  C   UNL     1     -43.922-154.819 305.665  0.00  0.00    +0.000 C 
ATOM     10  C   UNL     1     -45.004-155.667 305.064  0.00  0.00    +0.000 C 
BRANCH   5  11
ATOM     11  C   UNL     1     -46.596-157.622 305.153  0.00  0.00    +0.000 C 
BRANCH  11  13
ATOM     12  C   UNL     1     -47.628-160.016 304.971  0.00  0.00    +0.000 C 
ATOM     13  C   UNL     1     -46.971-158.942 305.849  0.00  0.00    +0.000 C 
ENDBRANCH  11  13
ENDBRANCH   5  11
ENDBRANCH   1   8
BRANCH   2  14
ATOM     14  C   UNL     1     -40.872-157.665 307.292  0.00  0.00    +0.000 C 
BRANCH  14  15
ATOM     15  S   UNL     1     -40.959-159.403 307.769  0.00  0.00    +0.000 S 
BRANCH  15  16
ATOM     16  C   UNL     1     -41.427-159.408 309.429  0.00  0.00    +0.000 A 
ATOM     17  N   UNL     1     -42.221-158.570 310.058  0.00  0.00    +0.000 NA
ATOM     18  N   UNL     1     -42.456-159.084 311.326  0.00  0.00    +0.000 NA
ATOM     19  C   UNL     1     -41.810-160.229 311.424  0.00  0.00    +0.000 A 
ATOM     20  C   UNL     1     -41.695-161.204 312.455  0.00  0.00    +0.000 A 
ATOM     21  C   UNL     1     -40.946-162.308 312.250  0.00  0.00    +0.000 A 
ATOM     22  C   UNL     1     -40.245-162.531 310.995  0.00  0.00    +0.000 A 
ATOM     23  C   UNL     1     -40.357-161.617 310.020  0.00  0.00    +0.000 A 
ATOM     24  N   UNL     1     -41.133-160.478 310.238  0.00  0.00    +0.000 N 
ENDBRANCH  15  16
ENDBRANCH  14  15
ENDBRANCH   2  14
TORSDOF 6
ENDMDL
MODEL 5
REMARK VINA RESULT:    -8.755      2.965      5.001
REMARK INTER + INTRA:         -12.530
REMARK INTER:                 -12.170
REMARK INTRA:                  -0.360
REMARK UNBOUND:                -0.704
REMARK  Name = 
REMARK  7 active torsions:
REMARK  status: ('A' for Active; 'I' for Inactive)
REMARK    1  A    between atoms: C_1  and  C_2
REMARK    2  A    between atoms: C_2  and  C_3
REMARK    3  A    between atoms: C_3  and  C_4
REMARK    4  A    between atoms: C_7  and  N_8
REMARK    5  A    between atoms: C_9  and  C_11
REMARK    6  A    between atoms: C_11  and  S_12
REMARK    7  A    between atoms: S_12  and  C_13
REMARK                            x       y       z     vdW  Elec       q    Type
REMARK                         _______ _______ _______ _____ _____    ______ ____
ROOT
ATOM      1  N   UNL     1     -42.799-161.414 310.938  0.00  0.00    +0.000 N 
ATOM      2  C   UNL     1     -42.426-162.114 309.822  0.00  0.00    +0.000 C 
ATOM      3  O   UNL     1     -43.031-163.135 309.521  0.00  0.00    +0.000 OA
ATOM      4  H   UNL     1     -43.671-161.752 311.336  0.00  0.00    +0.000 HD
ENDROOT
BRANCH   1   8
ATOM      5  C   UNL     1     -42.309-160.635 314.441  0.00  0.00    +0.000 C 
ATOM      6  C   UNL     1     -41.266-161.356 313.582  0.00  0.00    +0.000 C 
ATOM      7  C   UNL     1     -40.931-160.576 312.319  0.00  0.00    +0.000 C 
ATOM      8  C   UNL     1     -42.168-160.222 311.498  0.00  0.00    +0.000 C 
ATOM      9  C   UNL     1     -43.154-159.420 312.320  0.00  0.00    +0.000 C 
ATOM     10  C   UNL     1     -43.473-160.142 313.596  0.00  0.00    +0.000 C 
BRANCH   5  11
ATOM     11  C   UNL     1     -42.804-161.578 315.558  0.00  0.00    +0.000 C 
BRANCH  11  13
ATOM     12  C   UNL     1     -41.440-161.729 317.782  0.00  0.00    +0.000 C 
ATOM     13  C   UNL     1     -41.706-162.282 316.376  0.00  0.00    +0.000 C 
ENDBRANCH  11  13
ENDBRANCH   5  11
ENDBRANCH   1   8
BRANCH   2  14
ATOM     14  C   UNL     1     -41.183-161.679 309.078  0.00  0.00    +0.000 C 
BRANCH  14  15
ATOM     15  S   UNL     1     -39.644-162.427 309.652  0.00  0.00    +0.000 S 
BRANCH  15  16
ATOM     16  C   UNL     1     -39.668-164.050 309.066  0.00  0.00    +0.000 A 
ATOM     17  N   UNL     1     -40.449-165.041 309.433  0.00  0.00    +0.000 NA
ATOM     18  N   UNL     1     -40.235-166.093 308.554  0.00  0.00    +0.000 NA
ATOM     19  C   UNL     1     -39.341-165.703 307.667  0.00  0.00    +0.000 A 
ATOM     20  C   UNL     1     -38.752-166.326 306.530  0.00  0.00    +0.000 A 
ATOM     21  C   UNL     1     -37.847-165.650 305.792  0.00  0.00    +0.000 A 
ATOM     22  C   UNL     1     -37.450-164.292 306.129  0.00  0.00    +0.000 A 
ATOM     23  C   UNL     1     -38.008-163.700 307.195  0.00  0.00    +0.000 A 
ATOM     24  N   UNL     1     -38.944-164.405 307.954  0.00  0.00    +0.000 N 
ENDBRANCH  15  16
ENDBRANCH  14  15
ENDBRANCH   2  14
TORSDOF 6
ENDMDL
MODEL 6
REMARK VINA RESULT:    -8.709      3.176      8.526
REMARK INTER + INTRA:         -12.468
REMARK INTER:                 -12.065
REMARK INTRA:                  -0.403
REMARK UNBOUND:                -0.704
REMARK  Name = 
REMARK  7 active torsions:
REMARK  status: ('A' for Active; 'I' for Inactive)
REMARK    1  A    between atoms: C_1  and  C_2
REMARK    2  A    between atoms: C_2  and  C_3
REMARK    3  A    between atoms: C_3  and  C_4
REMARK    4  A    between atoms: C_7  and  N_8
REMARK    5  A    between atoms: C_9  and  C_11
REMARK    6  A    between atoms: C_11  and  S_12
REMARK    7  A    between atoms: S_12  and  C_13
REMARK                            x       y       z     vdW  Elec       q    Type
REMARK                         _______ _______ _______ _____ _____    ______ ____
ROOT
ATOM      1  N   UNL     1     -40.783-160.528 309.425  0.00  0.00    +0.000 N 
ATOM      2  C   UNL     1     -41.304-159.513 308.668  0.00  0.00    +0.000 C 
ATOM      3  O   UNL     1     -40.637-159.039 307.757  0.00  0.00    +0.000 OA
ATOM      4  H   UNL     1     -39.918-160.896 309.041  0.00  0.00    +0.000 HD
ENDROOT
BRANCH   1   8
ATOM      5  C   UNL     1     -40.996-164.082 310.089  0.00  0.00    +0.000 C 
ATOM      6  C   UNL     1     -39.851-163.196 310.589  0.00  0.00    +0.000 C 
ATOM      7  C   UNL     1     -40.361-161.993 311.368  0.00  0.00    +0.000 C 
ATOM      8  C   UNL     1     -41.386-161.175 310.588  0.00  0.00    +0.000 C 
ATOM      9  C   UNL     1     -42.568-162.030 310.182  0.00  0.00    +0.000 C 
ATOM     10  C   UNL     1     -42.096-163.250 309.448  0.00  0.00    +0.000 C 
BRANCH   5  11
ATOM     11  C   UNL     1     -40.449-165.127 309.094  0.00  0.00    +0.000 C 
BRANCH  11  13
ATOM     12  C   UNL     1     -38.732-164.580 307.201  0.00  0.00    +0.000 C 
ATOM     13  C   UNL     1     -38.980-164.944 308.671  0.00  0.00    +0.000 C 
ENDBRANCH  11  13
ENDBRANCH   5  11
ENDBRANCH   1   8
BRANCH   2  14
ATOM     14  C   UNL     1     -42.630-158.913 309.077  0.00  0.00    +0.000 C 
BRANCH  14  15
ATOM     15  S   UNL     1     -42.781-157.134 308.815  0.00  0.00    +0.000 S 
BRANCH  15  16
ATOM     16  C   UNL     1     -43.977-156.944 307.586  0.00  0.00    +0.000 A 
ATOM     17  N   UNL     1     -45.176-157.477 307.522  0.00  0.00    +0.000 NA
ATOM     18  N   UNL     1     -45.843-156.887 306.457  0.00  0.00    +0.000 NA
ATOM     19  C   UNL     1     -45.033-155.999 305.916  0.00  0.00    +0.000 A 
ATOM     20  C   UNL     1     -45.165-155.085 304.832  0.00  0.00    +0.000 A 
ATOM     21  C   UNL     1     -44.134-154.275 304.512  0.00  0.00    +0.000 A 
ATOM     22  C   UNL     1     -42.879-154.312 305.248  0.00  0.00    +0.000 A 
ATOM     23  C   UNL     1     -42.755-155.167 306.273  0.00  0.00    +0.000 A 
ATOM     24  N   UNL     1     -43.825-156.001 306.599  0.00  0.00    +0.000 N 
ENDBRANCH  15  16
ENDBRANCH  14  15
ENDBRANCH   2  14
TORSDOF 6
ENDMDL
MODEL 7
REMARK VINA RESULT:    -8.356      2.678      4.269
REMARK INTER + INTRA:         -11.991
REMARK INTER:                 -11.815
REMARK INTRA:                  -0.176
REMARK UNBOUND:                -0.704
REMARK  Name = 
REMARK  7 active torsions:
REMARK  status: ('A' for Active; 'I' for Inactive)
REMARK    1  A    between atoms: C_1  and  C_2
REMARK    2  A    between atoms: C_2  and  C_3
REMARK    3  A    between atoms: C_3  and  C_4
REMARK    4  A    between atoms: C_7  and  N_8
REMARK    5  A    between atoms: C_9  and  C_11
REMARK    6  A    between atoms: C_11  and  S_12
REMARK    7  A    between atoms: S_12  and  C_13
REMARK                            x       y       z     vdW  Elec       q    Type
REMARK                         _______ _______ _______ _____ _____    ______ ____
ROOT
ATOM      1  N   UNL     1     -41.849-157.430 307.314  0.00  0.00    +0.000 N 
ATOM      2  C   UNL     1     -41.493-158.717 307.614  0.00  0.00    +0.000 C 
ATOM      3  O   UNL     1     -40.896-159.387 306.781  0.00  0.00    +0.000 OA
ATOM      4  H   UNL     1     -41.433-157.104 306.447  0.00  0.00    +0.000 HD
ENDROOT
BRANCH   1   8
ATOM      5  C   UNL     1     -45.128-156.068 306.603  0.00  0.00    +0.000 C 
ATOM      6  C   UNL     1     -44.902-157.341 307.424  0.00  0.00    +0.000 C 
ATOM      7  C   UNL     1     -43.942-157.108 308.583  0.00  0.00    +0.000 C 
ATOM      8  C   UNL     1     -42.616-156.500 308.137  0.00  0.00    +0.000 C 
ATOM      9  C   UNL     1     -42.835-155.188 307.415  0.00  0.00    +0.000 C 
ATOM     10  C   UNL     1     -43.812-155.372 306.291  0.00  0.00    +0.000 C 
BRANCH   5  11
ATOM     11  C   UNL     1     -45.886-156.415 305.304  0.00  0.00    +0.000 C 
BRANCH  11  13
ATOM     12  C   UNL     1     -47.212-158.604 304.774  0.00  0.00    +0.000 C 
ATOM     13  C   UNL     1     -45.855-157.896 304.886  0.00  0.00    +0.000 C 
ENDBRANCH  11  13
ENDBRANCH   5  11
ENDBRANCH   1   8
BRANCH   2  14
ATOM     14  C   UNL     1     -41.979-159.317 308.915  0.00  0.00    +0.000 C 
BRANCH  14  15
ATOM     15  S   UNL     1     -40.693-159.637 310.140  0.00  0.00    +0.000 S 
BRANCH  15  16
ATOM     16  C   UNL     1     -40.757-161.334 310.450  0.00  0.00    +0.000 A 
ATOM     17  N   UNL     1     -41.486-161.977 311.335  0.00  0.00    +0.000 NA
ATOM     18  N   UNL     1     -41.349-163.335 311.085  0.00  0.00    +0.000 NA
ATOM     19  C   UNL     1     -40.554-163.476 310.044  0.00  0.00    +0.000 A 
ATOM     20  C   UNL     1     -40.074-164.607 309.322  0.00  0.00    +0.000 A 
ATOM     21  C   UNL     1     -39.255-164.426 308.265  0.00  0.00    +0.000 A 
ATOM     22  C   UNL     1     -38.843-163.098 307.838  0.00  0.00    +0.000 A 
ATOM     23  C   UNL     1     -39.298-162.032 308.512  0.00  0.00    +0.000 A 
ATOM     24  N   UNL     1     -40.144-162.225 309.604  0.00  0.00    +0.000 N 
ENDBRANCH  15  16
ENDBRANCH  14  15
ENDBRANCH   2  14
TORSDOF 6
ENDMDL
MODEL 8
REMARK VINA RESULT:    -8.263      4.076      6.379
REMARK INTER + INTRA:         -11.865
REMARK INTER:                 -11.370
REMARK INTRA:                  -0.495
REMARK UNBOUND:                -0.704
REMARK  Name = 
REMARK  7 active torsions:
REMARK  status: ('A' for Active; 'I' for Inactive)
REMARK    1  A    between atoms: C_1  and  C_2
REMARK    2  A    between atoms: C_2  and  C_3
REMARK    3  A    between atoms: C_3  and  C_4
REMARK    4  A    between atoms: C_7  and  N_8
REMARK    5  A    between atoms: C_9  and  C_11
REMARK    6  A    between atoms: C_11  and  S_12
REMARK    7  A    between atoms: S_12  and  C_13
REMARK                            x       y       z     vdW  Elec       q    Type
REMARK                         _______ _______ _______ _____ _____    ______ ____
ROOT
ATOM      1  N   UNL     1     -41.151-159.151 307.013  0.00  0.00    +0.000 N 
ATOM      2  C   UNL     1     -40.851-160.108 307.945  0.00  0.00    +0.000 C 
ATOM      3  O   UNL     1     -40.966-161.291 307.651  0.00  0.00    +0.000 OA
ATOM      4  H   UNL     1     -41.304-159.542 306.089  0.00  0.00    +0.000 HD
ENDROOT
BRANCH   1   8
ATOM      5  C   UNL     1     -43.515-156.768 305.653  0.00  0.00    +0.000 C 
ATOM      6  C   UNL     1     -43.659-157.404 307.039  0.00  0.00    +0.000 C 
ATOM      7  C   UNL     1     -42.409-157.213 307.886  0.00  0.00    +0.000 C 
ATOM      8  C   UNL     1     -41.143-157.701 307.188  0.00  0.00    +0.000 C 
ATOM      9  C   UNL     1     -40.947-156.995 305.863  0.00  0.00    +0.000 C 
ATOM     10  C   UNL     1     -42.180-157.127 305.018  0.00  0.00    +0.000 C 
BRANCH   5  11
ATOM     11  C   UNL     1     -44.687-157.213 304.753  0.00  0.00    +0.000 C 
BRANCH  11  13
ATOM     12  C   UNL     1     -46.846-158.684 304.823  0.00  0.00    +0.000 C 
ATOM     13  C   UNL     1     -45.985-157.600 305.485  0.00  0.00    +0.000 C 
ENDBRANCH  11  13
ENDBRANCH   5  11
ENDBRANCH   1   8
BRANCH   2  14
ATOM     14  C   UNL     1     -40.526-159.667 309.355  0.00  0.00    +0.000 C 
BRANCH  14  15
ATOM     15  S   UNL     1     -40.804-160.913 310.631  0.00  0.00    +0.000 S 
BRANCH  15  16
ATOM     16  C   UNL     1     -41.974-160.231 311.701  0.00  0.00    +0.000 A 
ATOM     17  N   UNL     1     -42.934-159.375 311.426  0.00  0.00    +0.000 NA
ATOM     18  N   UNL     1     -43.737-159.268 312.553  0.00  0.00    +0.000 NA
ATOM     19  C   UNL     1     -43.250-160.075 313.474  0.00  0.00    +0.000 A 
ATOM     20  C   UNL     1     -43.653-160.405 314.800  0.00  0.00    +0.000 A 
ATOM     21  C   UNL     1     -42.935-161.298 315.513  0.00  0.00    +0.000 A 
ATOM     22  C   UNL     1     -41.751-161.939 314.962  0.00  0.00    +0.000 A 
ATOM     23  C   UNL     1     -41.373-161.635 313.711  0.00  0.00    +0.000 A 
ATOM     24  N   UNL     1     -42.120-160.710 312.980  0.00  0.00    +0.000 N 
ENDBRANCH  15  16
ENDBRANCH  14  15
ENDBRANCH   2  14
TORSDOF 6
ENDMDL
MODEL 9
REMARK VINA RESULT:    -8.262      4.014      7.816
REMARK INTER + INTRA:         -11.864
REMARK INTER:                 -11.089
REMARK INTRA:                  -0.775
REMARK UNBOUND:                -0.704
REMARK  Name = 
REMARK  7 active torsions:
REMARK  status: ('A' for Active; 'I' for Inactive)
REMARK    1  A    between atoms: C_1  and  C_2
REMARK    2  A    between atoms: C_2  and  C_3
REMARK    3  A    between atoms: C_3  and  C_4
REMARK    4  A    between atoms: C_7  and  N_8
REMARK    5  A    between atoms: C_9  and  C_11
REMARK    6  A    between atoms: C_11  and  S_12
REMARK    7  A    between atoms: S_12  and  C_13
REMARK                            x       y       z     vdW  Elec       q    Type
REMARK                         _______ _______ _______ _____ _____    ______ ____
ROOT
ATOM      1  N   UNL     1     -41.460-159.006 309.442  0.00  0.00    +0.000 N 
ATOM      2  C   UNL     1     -41.757-158.363 308.271  0.00  0.00    +0.000 C 
ATOM      3  O   UNL     1     -41.318-158.801 307.215  0.00  0.00    +0.000 OA
ATOM      4  H   UNL     1     -41.006-159.902 309.290  0.00  0.00    +0.000 HD
ENDROOT
BRANCH   1   8
ATOM      5  C   UNL     1     -41.490-161.089 312.405  0.00  0.00    +0.000 C 
ATOM      6  C   UNL     1     -40.286-160.243 311.979  0.00  0.00    +0.000 C 
ATOM      7  C   UNL     1     -40.663-158.783 311.769  0.00  0.00    +0.000 C 
ATOM      8  C   UNL     1     -41.827-158.608 310.799  0.00  0.00    +0.000 C 
ATOM      9  C   UNL     1     -43.049-159.363 311.275  0.00  0.00    +0.000 C 
ATOM     10  C   UNL     1     -42.702-160.800 311.533  0.00  0.00    +0.000 C 
BRANCH   5  11
ATOM     11  C   UNL     1     -41.118-162.586 312.347  0.00  0.00    +0.000 C 
BRANCH  11  13
ATOM     12  C   UNL     1     -40.169-163.371 310.042  0.00  0.00    +0.000 C 
ATOM     13  C   UNL     1     -41.366-163.286 310.998  0.00  0.00    +0.000 C 
ENDBRANCH  11  13
ENDBRANCH   5  11
ENDBRANCH   1   8
BRANCH   2  14
ATOM     14  C   UNL     1     -42.501-157.047 308.337  0.00  0.00    +0.000 C 
BRANCH  14  15
ATOM     15  S   UNL     1     -44.300-157.181 308.333  0.00  0.00    +0.000 S 
BRANCH  15  16
ATOM     16  C   UNL     1     -44.771-157.079 306.676  0.00  0.00    +0.000 A 
ATOM     17  N   UNL     1     -44.227-156.371 305.713  0.00  0.00    +0.000 NA
ATOM     18  N   UNL     1     -44.820-156.757 304.519  0.00  0.00    +0.000 NA
ATOM     19  C   UNL     1     -45.697-157.702 304.792  0.00  0.00    +0.000 A 
ATOM     20  C   UNL     1     -46.576-158.485 303.989  0.00  0.00    +0.000 A 
ATOM     21  C   UNL     1     -47.371-159.405 304.573  0.00  0.00    +0.000 A 
ATOM     22  C   UNL     1     -47.358-159.623 306.011  0.00  0.00    +0.000 A 
ATOM     23  C   UNL     1     -46.527-158.891 306.769  0.00  0.00    +0.000 A 
ATOM     24  N   UNL     1     -45.708-157.941 306.159  0.00  0.00    +0.000 N 
ENDBRANCH  15  16
ENDBRANCH  14  15
ENDBRANCH   2  14
TORSDOF 6
ENDMDL
MODEL 10
REMARK VINA RESULT:    -8.058      2.845      7.568
REMARK INTER + INTRA:         -11.589
REMARK INTER:                 -11.180
REMARK INTRA:                  -0.409
REMARK UNBOUND:                -0.704
REMARK  Name = 
REMARK  7 active torsions:
REMARK  status: ('A' for Active; 'I' for Inactive)
REMARK    1  A    between atoms: C_1  and  C_2
REMARK    2  A    between atoms: C_2  and  C_3
REMARK    3  A    between atoms: C_3  and  C_4
REMARK    4  A    between atoms: C_7  and  N_8
REMARK    5  A    between atoms: C_9  and  C_11
REMARK    6  A    between atoms: C_11  and  S_12
REMARK    7  A    between atoms: S_12  and  C_13
REMARK                            x       y       z     vdW  Elec       q    Type
REMARK                         _______ _______ _______ _____ _____    ______ ____
ROOT
ATOM      1  N   UNL     1     -40.720-161.514 310.428  0.00  0.00    +0.000 N 
ATOM      2  C   UNL     1     -41.097-160.215 310.640  0.00  0.00    +0.000 C 
ATOM      3  O   UNL     1     -40.452-159.520 311.415  0.00  0.00    +0.000 OA
ATOM      4  H   UNL     1     -39.820-161.731 310.843  0.00  0.00    +0.000 HD
ENDROOT
BRANCH   1   8
ATOM      5  C   UNL     1     -39.262-163.497 307.771  0.00  0.00    +0.000 C 
ATOM      6  C   UNL     1     -39.341-163.964 309.228  0.00  0.00    +0.000 C 
ATOM      7  C   UNL     1     -40.761-163.894 309.771  0.00  0.00    +0.000 C 
ATOM      8  C   UNL     1     -41.391-162.515 309.602  0.00  0.00    +0.000 C 
ATOM      9  C   UNL     1     -41.405-162.099 308.147  0.00  0.00    +0.000 C 
ATOM     10  C   UNL     1     -40.025-162.197 307.567  0.00  0.00    +0.000 C 
BRANCH   5  11
ATOM     11  C   UNL     1     -37.784-163.335 307.357  0.00  0.00    +0.000 C 
BRANCH  11  13
ATOM     12  C   UNL     1     -38.129-165.405 305.800  0.00  0.00    +0.000 C 
ATOM     13  C   UNL     1     -37.163-164.529 306.608  0.00  0.00    +0.000 C 
ENDBRANCH  11  13
ENDBRANCH   5  11
ENDBRANCH   1   8
BRANCH   2  14
ATOM     14  C   UNL     1     -42.385-159.725 310.018  0.00  0.00    +0.000 C 
BRANCH  14  15
ATOM     15  S   UNL     1     -42.576-157.931 309.961  0.00  0.00    +0.000 S 
BRANCH  15  16
ATOM     16  C   UNL     1     -43.450-157.602 308.509  0.00  0.00    +0.000 A 
ATOM     17  N   UNL     1     -44.707-157.242 308.374  0.00  0.00    +0.000 NA
ATOM     18  N   UNL     1     -44.906-156.903 307.044  0.00  0.00    +0.000 NA
ATOM     19  C   UNL     1     -43.760-157.051 306.412  0.00  0.00    +0.000 A 
ATOM     20  C   UNL     1     -43.346-156.837 305.066  0.00  0.00    +0.000 A 
ATOM     21  C   UNL     1     -42.066-157.076 304.714  0.00  0.00    +0.000 A 
ATOM     22  C   UNL     1     -41.087-157.554 305.678  0.00  0.00    +0.000 A 
ATOM     23  C   UNL     1     -41.471-157.751 306.948  0.00  0.00    +0.000 A 
ATOM     24  N   UNL     1     -42.797-157.501 307.305  0.00  0.00    +0.000 N 
ENDBRANCH  15  16
ENDBRANCH  14  15
ENDBRANCH   2  14
TORSDOF 6
ENDMDL
