MODEL 1
REMARK VINA RESULT:    -9.279      0.000      0.000
REMARK INTER + INTRA:         -13.595
REMARK INTER:                 -13.075
REMARK INTRA:                  -0.519
REMARK UNBOUND:                -0.519
REMARK  Name = 
REMARK  10 active torsions:
REMARK  status: ('A' for Active; 'I' for Inactive)
REMARK    1  A    between atoms: C_1  and  C_2
REMARK    2  A    between atoms: C_2  and  O_3
REMARK    3  A    between atoms: O_3  and  C_4
REMARK    4  A    between atoms: C_7  and  C_8
REMARK    5  A    between atoms: C_8  and  N_9
REMARK    6  A    between atoms: N_9  and  C_19
REMARK    7  A    between atoms: C_10  and  C_12
REMARK    8  A    between atoms: C_16  and  C_17
REMARK    9  A    between atoms: C_23  and  O_24
REMARK   10  A    between atoms: O_24  and  C_25
REMARK                            x       y       z     vdW  Elec       q    Type
REMARK                         _______ _______ _______ _____ _____    ______ ____
ROOT
ATOM      1  N   UNL     1     -42.289-160.267 310.947  0.00  0.00    +0.000 N 
ATOM      2  C   UNL     1     -41.396-159.300 310.429  0.00  0.00    +0.000 C 
ATOM      3  O   UNL     1     -40.416-158.954 311.053  0.00  0.00    +0.000 OA
ENDROOT
BRANCH   2   4
ATOM      4  C   UNL     1     -41.748-158.636 309.092  0.00  0.00    +0.000 A 
ATOM      5  C   UNL     1     -41.049-158.878 307.909  0.00  0.00    +0.000 A 
ATOM      6  C   UNL     1     -41.422-158.233 306.739  0.00  0.00    +0.000 A 
ATOM      7  C   UNL     1     -42.551-157.435 306.747  0.00  0.00    +0.000 A 
ATOM      8  C   UNL     1     -43.257-157.287 307.935  0.00  0.00    +0.000 A 
ATOM      9  C   UNL     1     -44.524-156.486 307.952  0.00  0.00    +0.000 C 
ATOM     10  N   UNL     1     -42.858-157.852 309.104  0.00  0.00    +0.000 NA
ENDBRANCH   2   4
BRANCH   1  11
ATOM     11  C   UNL     1     -42.565-160.273 312.387  0.00  0.00    +0.000 C 
ATOM     12  C   UNL     1     -43.289-159.106 313.035  0.00  0.00    +0.000 C 
ATOM     13  C   UNL     1     -43.888-160.480 313.079  0.00  0.00    +0.000 C 
ENDBRANCH   1  11
BRANCH   1  14
ATOM     14  C   UNL     1     -42.803-161.302 310.076  0.00  0.00    +0.000 C 
BRANCH  14  18
ATOM     15  C   UNL     1     -39.935-164.412 309.083  0.00  0.00    +0.000 A 
ATOM     16  C   UNL     1     -41.029-164.728 309.915  0.00  0.00    +0.000 A 
ATOM     17  C   UNL     1     -42.026-163.753 310.213  0.00  0.00    +0.000 A 
ATOM     18  C   UNL     1     -41.863-162.423 309.813  0.00  0.00    +0.000 A 
ATOM     19  C   UNL     1     -40.812-162.101 309.005  0.00  0.00    +0.000 A 
ATOM     20  C   UNL     1     -40.029-163.113 308.509  0.00  0.00    +0.000 A 
BRANCH  20  21
ATOM     21  O   UNL     1     -39.566-162.636 307.297  0.00  0.00    +0.000 OA
ATOM     22  C   UNL     1     -38.220-162.486 307.463  0.00  0.00    +0.000 C 
ENDBRANCH  20  21
BRANCH  15  23
ATOM     23  O   UNL     1     -39.083-165.428 308.636  0.00  0.00    +0.000 OA
BRANCH  23  25
ATOM     24  C   UNL     1     -38.565-165.879 305.961  0.00  0.00    +0.000 C 
ATOM     25  C   UNL     1     -39.216-166.243 307.378  0.00  0.00    +0.000 C 
ENDBRANCH  23  25
ENDBRANCH  15  23
ENDBRANCH  14  18
ENDBRANCH   1  14
TORSDOF 7
ENDMDL
MODEL 2
REMARK VINA RESULT:    -9.114      2.462      6.833
REMARK INTER + INTRA:         -13.363
REMARK INTER:                 -13.111
REMARK INTRA:                  -0.252
REMARK UNBOUND:                -0.519
REMARK  Name = 
REMARK  10 active torsions:
REMARK  status: ('A' for Active; 'I' for Inactive)
REMARK    1  A    between atoms: C_1  and  C_2
REMARK    2  A    between atoms: C_2  and  O_3
REMARK    3  A    between atoms: O_3  and  C_4
REMARK    4  A    between atoms: C_7  and  C_8
REMARK    5  A    between atoms: C_8  and  N_9
REMARK    6  A    between atoms: N_9  and  C_19
REMARK    7  A    between atoms: C_10  and  C_12
REMARK    8  A    between atoms: C_16  and  C_17
REMARK    9  A    between atoms: C_23  and  O_24
REMARK   10  A    between atoms: O_24  and  C_25
REMARK                            x       y       z     vdW  Elec       q    Type
REMARK                         _______ _______ _______ _____ _____    ______ ____
ROOT
ATOM      1  N   UNL     1     -41.513-159.903 310.577  0.00  0.00    +0.000 N 
ATOM      2  C   UNL     1     -41.158-161.096 311.252  0.00  0.00    +0.000 C 
ATOM      3  O   UNL     1     -41.137-161.149 312.463  0.00  0.00    +0.000 OA
ENDROOT
BRANCH   2   4
ATOM      4  C   UNL     1     -40.717-162.297 310.407  0.00  0.00    +0.000 A 
ATOM      5  C   UNL     1     -41.284-163.566 310.524  0.00  0.00    +0.000 A 
ATOM      6  C   UNL     1     -40.825-164.606 309.730  0.00  0.00    +0.000 A 
ATOM      7  C   UNL     1     -39.877-164.340 308.761  0.00  0.00    +0.000 A 
ATOM      8  C   UNL     1     -39.398-163.040 308.634  0.00  0.00    +0.000 A 
ATOM      9  C   UNL     1     -38.424-162.710 307.544  0.00  0.00    +0.000 C 
ATOM     10  N   UNL     1     -39.783-162.030 309.455  0.00  0.00    +0.000 NA
ENDBRANCH   2   4
BRANCH   1  11
ATOM     11  C   UNL     1     -41.087-158.620 311.143  0.00  0.00    +0.000 C 
ATOM     12  C   UNL     1     -41.991-157.865 312.103  0.00  0.00    +0.000 C 
ATOM     13  C   UNL     1     -40.637-158.328 312.552  0.00  0.00    +0.000 C 
ENDBRANCH   1  11
BRANCH   1  14
ATOM     14  C   UNL     1     -42.392-159.967 309.430  0.00  0.00    +0.000 C 
BRANCH  14  18
ATOM     15  C   UNL     1     -42.120-156.698 306.582  0.00  0.00    +0.000 A 
ATOM     16  C   UNL     1     -41.156-157.727 306.540  0.00  0.00    +0.000 A 
ATOM     17  C   UNL     1     -41.246-158.848 307.415  0.00  0.00    +0.000 A 
ATOM     18  C   UNL     1     -42.202-158.881 308.434  0.00  0.00    +0.000 A 
ATOM     19  C   UNL     1     -43.145-157.896 308.486  0.00  0.00    +0.000 A 
ATOM     20  C   UNL     1     -43.200-156.983 307.464  0.00  0.00    +0.000 A 
BRANCH  20  21
ATOM     21  O   UNL     1     -44.528-156.606 307.402  0.00  0.00    +0.000 OA
ATOM     22  C   UNL     1     -45.113-157.494 306.548  0.00  0.00    +0.000 C 
ENDBRANCH  20  21
BRANCH  15  23
ATOM     23  O   UNL     1     -42.135-155.715 305.585  0.00  0.00    +0.000 OA
BRANCH  23  25
ATOM     24  C   UNL     1     -44.367-154.366 304.678  0.00  0.00    +0.000 C 
ATOM     25  C   UNL     1     -43.012-154.493 305.521  0.00  0.00    +0.000 C 
ENDBRANCH  23  25
ENDBRANCH  15  23
ENDBRANCH  14  18
ENDBRANCH   1  14
TORSDOF 7
ENDMDL
MODEL 3
REMARK VINA RESULT:    -8.938      2.626      6.732
REMARK INTER + INTRA:         -13.115
REMARK INTER:                 -12.707
REMARK INTRA:                  -0.408
REMARK UNBOUND:                -0.519
REMARK  Name = 
REMARK  10 active torsions:
REMARK  status: ('A' for Active; 'I' for Inactive)
REMARK    1  A    between atoms: C_1  and  C_2
REMARK    2  A    between atoms: C_2  and  O_3
REMARK    3  A    between atoms: O_3  and  C_4
REMARK    4  A    between atoms: C_7  and  C_8
REMARK    5  A    between atoms: C_8  and  N_9
REMARK    6  A    between atoms: N_9  and  C_19
REMARK    7  A    between atoms: C_10  and  C_12
REMARK    8  A    between atoms: C_16  and  C_17
REMARK    9  A    between atoms: C_23  and  O_24
REMARK   10  A    between atoms: O_24  and  C_25
REMARK                            x       y       z     vdW  Elec       q    Type
REMARK                         _______ _______ _______ _____ _____    ______ ____
ROOT
ATOM      1  N   UNL     1     -41.515-160.011 310.157  0.00  0.00    +0.000 N 
ATOM      2  C   UNL     1     -41.813-161.350 309.809  0.00  0.00    +0.000 C 
ATOM      3  O   UNL     1     -42.839-161.881 310.178  0.00  0.00    +0.000 OA
ENDROOT
BRANCH   2   4
ATOM      4  C   UNL     1     -40.761-162.141 309.021  0.00  0.00    +0.000 A 
ATOM      5  C   UNL     1     -39.804-161.539 308.204  0.00  0.00    +0.000 A 
ATOM      6  C   UNL     1     -38.889-162.323 307.516  0.00  0.00    +0.000 A 
ATOM      7  C   UNL     1     -38.881-163.687 307.734  0.00  0.00    +0.000 A 
ATOM      8  C   UNL     1     -39.808-164.229 308.617  0.00  0.00    +0.000 A 
ATOM      9  C   UNL     1     -39.771-165.696 308.926  0.00  0.00    +0.000 C 
ATOM     10  N   UNL     1     -40.757-163.483 309.238  0.00  0.00    +0.000 NA
ENDBRANCH   2   4
BRANCH   1  11
ATOM     11  C   UNL     1     -41.897-159.526 311.487  0.00  0.00    +0.000 C 
ATOM     12  C   UNL     1     -40.910-159.587 312.640  0.00  0.00    +0.000 C 
ATOM     13  C   UNL     1     -41.450-158.265 312.181  0.00  0.00    +0.000 C 
ENDBRANCH   1  11
BRANCH   1  14
ATOM     14  C   UNL     1     -40.967-159.120 309.158  0.00  0.00    +0.000 C 
BRANCH  14  18
ATOM     15  C   UNL     1     -43.704-157.206 306.379  0.00  0.00    +0.000 A 
ATOM     16  C   UNL     1     -44.000-157.185 307.758  0.00  0.00    +0.000 A 
ATOM     17  C   UNL     1     -43.097-157.746 308.708  0.00  0.00    +0.000 A 
ATOM     18  C   UNL     1     -41.973-158.462 308.285  0.00  0.00    +0.000 A 
ATOM     19  C   UNL     1     -41.670-158.489 306.954  0.00  0.00    +0.000 A 
ATOM     20  C   UNL     1     -42.403-157.707 306.097  0.00  0.00    +0.000 A 
BRANCH  20  21
ATOM     21  O   UNL     1     -41.528-157.398 305.072  0.00  0.00    +0.000 OA
ATOM     22  C   UNL     1     -40.551-156.642 305.650  0.00  0.00    +0.000 C 
ENDBRANCH  20  21
BRANCH  15  23
ATOM     23  O   UNL     1     -44.495-156.474 305.485  0.00  0.00    +0.000 OA
BRANCH  23  25
ATOM     24  C   UNL     1     -43.201-154.101 304.919  0.00  0.00    +0.000 C 
ATOM     25  C   UNL     1     -44.489-154.985 305.271  0.00  0.00    +0.000 C 
ENDBRANCH  23  25
ENDBRANCH  15  23
ENDBRANCH  14  18
ENDBRANCH   1  14
TORSDOF 7
ENDMDL
MODEL 4
REMARK VINA RESULT:    -8.892      1.436      2.546
REMARK INTER + INTRA:         -13.050
REMARK INTER:                 -12.598
REMARK INTRA:                  -0.452
REMARK UNBOUND:                -0.519
REMARK  Name = 
REMARK  10 active torsions:
REMARK  status: ('A' for Active; 'I' for Inactive)
REMARK    1  A    between atoms: C_1  and  C_2
REMARK    2  A    between atoms: C_2  and  O_3
REMARK    3  A    between atoms: O_3  and  C_4
REMARK    4  A    between atoms: C_7  and  C_8
REMARK    5  A    between atoms: C_8  and  N_9
REMARK    6  A    between atoms: N_9  and  C_19
REMARK    7  A    between atoms: C_10  and  C_12
REMARK    8  A    between atoms: C_16  and  C_17
REMARK    9  A    between atoms: C_23  and  O_24
REMARK   10  A    between atoms: O_24  and  C_25
REMARK                            x       y       z     vdW  Elec       q    Type
REMARK                         _______ _______ _______ _____ _____    ______ ____
ROOT
ATOM      1  N   UNL     1     -41.812-160.748 310.244  0.00  0.00    +0.000 N 
ATOM      2  C   UNL     1     -41.358-159.426 310.020  0.00  0.00    +0.000 C 
ATOM      3  O   UNL     1     -40.506-158.929 310.724  0.00  0.00    +0.000 OA
ENDROOT
BRANCH   2   4
ATOM      4  C   UNL     1     -42.035-158.610 308.913  0.00  0.00    +0.000 A 
ATOM      5  C   UNL     1     -43.220-157.898 309.102  0.00  0.00    +0.000 A 
ATOM      6  C   UNL     1     -43.778-157.188 308.049  0.00  0.00    +0.000 A 
ATOM      7  C   UNL     1     -43.091-157.118 306.852  0.00  0.00    +0.000 A 
ATOM      8  C   UNL     1     -41.876-157.784 306.739  0.00  0.00    +0.000 A 
ATOM      9  C   UNL     1     -41.077-157.663 305.476  0.00  0.00    +0.000 C 
ATOM     10  N   UNL     1     -41.356-158.544 307.737  0.00  0.00    +0.000 NA
ENDBRANCH   2   4
BRANCH   1  11
ATOM     11  C   UNL     1     -41.939-161.226 311.624  0.00  0.00    +0.000 C 
ATOM     12  C   UNL     1     -41.037-162.334 312.139  0.00  0.00    +0.000 C 
ATOM     13  C   UNL     1     -41.006-160.979 312.782  0.00  0.00    +0.000 C 
ENDBRANCH   1  11
BRANCH   1  14
ATOM     14  C   UNL     1     -42.013-161.634 309.118  0.00  0.00    +0.000 C 
BRANCH  14  18
ATOM     15  C   UNL     1     -38.450-163.651 307.663  0.00  0.00    +0.000 A 
ATOM     16  C   UNL     1     -38.566-162.256 307.494  0.00  0.00    +0.000 A 
ATOM     17  C   UNL     1     -39.689-161.548 308.013  0.00  0.00    +0.000 A 
ATOM     18  C   UNL     1     -40.772-162.237 308.567  0.00  0.00    +0.000 A 
ATOM     19  C   UNL     1     -40.674-163.587 308.741  0.00  0.00    +0.000 A 
ATOM     20  C   UNL     1     -39.472-164.198 308.488  0.00  0.00    +0.000 A 
BRANCH  20  21
ATOM     21  O   UNL     1     -39.447-165.287 309.340  0.00  0.00    +0.000 OA
ATOM     22  C   UNL     1     -40.519-166.049 308.979  0.00  0.00    +0.000 C 
ENDBRANCH  20  21
BRANCH  15  23
ATOM     23  O   UNL     1     -37.253-164.297 307.333  0.00  0.00    +0.000 OA
BRANCH  23  25
ATOM     24  C   UNL     1     -38.225-166.164 305.545  0.00  0.00    +0.000 C 
ATOM     25  C   UNL     1     -37.080-165.501 306.447  0.00  0.00    +0.000 C 
ENDBRANCH  23  25
ENDBRANCH  15  23
ENDBRANCH  14  18
ENDBRANCH   1  14
TORSDOF 7
ENDMDL
MODEL 5
REMARK VINA RESULT:    -8.843      2.408      6.871
REMARK INTER + INTRA:         -12.981
REMARK INTER:                 -12.754
REMARK INTRA:                  -0.226
REMARK UNBOUND:                -0.519
REMARK  Name = 
REMARK  10 active torsions:
REMARK  status: ('A' for Active; 'I' for Inactive)
REMARK    1  A    between atoms: C_1  and  C_2
REMARK    2  A    between atoms: C_2  and  O_3
REMARK    3  A    between atoms: O_3  and  C_4
REMARK    4  A    between atoms: C_7  and  C_8
REMARK    5  A    between atoms: C_8  and  N_9
REMARK    6  A    between atoms: N_9  and  C_19
REMARK    7  A    between atoms: C_10  and  C_12
REMARK    8  A    between atoms: C_16  and  C_17
REMARK    9  A    between atoms: C_23  and  O_24
REMARK   10  A    between atoms: O_24  and  C_25
REMARK                            x       y       z     vdW  Elec       q    Type
REMARK                         _______ _______ _______ _____ _____    ______ ____
ROOT
ATOM      1  N   UNL     1     -41.101-161.387 310.584  0.00  0.00    +0.000 N 
ATOM      2  C   UNL     1     -40.671-160.989 311.873  0.00  0.00    +0.000 C 
ATOM      3  O   UNL     1     -39.495-160.836 312.121  0.00  0.00    +0.000 OA
ENDROOT
BRANCH   2   4
ATOM      4  C   UNL     1     -41.731-160.841 312.971  0.00  0.00    +0.000 A 
ATOM      5  C   UNL     1     -42.932-160.156 312.788  0.00  0.00    +0.000 A 
ATOM      6  C   UNL     1     -43.839-160.056 313.833  0.00  0.00    +0.000 A 
ATOM      7  C   UNL     1     -43.577-160.728 315.012  0.00  0.00    +0.000 A 
ATOM      8  C   UNL     1     -42.399-161.460 315.116  0.00  0.00    +0.000 A 
ATOM      9  C   UNL     1     -42.127-162.257 316.357  0.00  0.00    +0.000 C 
ATOM     10  N   UNL     1     -41.468-161.503 314.129  0.00  0.00    +0.000 NA
ENDBRANCH   2   4
BRANCH   1  11
ATOM     11  C   UNL     1     -40.285-162.346 309.833  0.00  0.00    +0.000 C 
ATOM     12  C   UNL     1     -40.589-163.833 309.902  0.00  0.00    +0.000 C 
ATOM     13  C   UNL     1     -40.658-163.111 308.589  0.00  0.00    +0.000 C 
ENDBRANCH   1  11
BRANCH   1  14
ATOM     14  C   UNL     1     -42.251-160.746 309.986  0.00  0.00    +0.000 C 
BRANCH  14  18
ATOM     15  C   UNL     1     -41.573-157.372 307.333  0.00  0.00    +0.000 A 
ATOM     16  C   UNL     1     -40.860-158.570 307.117  0.00  0.00    +0.000 A 
ATOM     17  C   UNL     1     -41.099-159.719 307.925  0.00  0.00    +0.000 A 
ATOM     18  C   UNL     1     -41.934-159.641 309.044  0.00  0.00    +0.000 A 
ATOM     19  C   UNL     1     -42.635-158.491 309.265  0.00  0.00    +0.000 A 
ATOM     20  C   UNL     1     -42.595-157.503 308.314  0.00  0.00    +0.000 A 
BRANCH  20  21
ATOM     21  O   UNL     1     -43.812-156.857 308.429  0.00  0.00    +0.000 OA
ATOM     22  C   UNL     1     -44.624-157.459 307.513  0.00  0.00    +0.000 C 
ENDBRANCH  20  21
BRANCH  15  23
ATOM     23  O   UNL     1     -41.477-156.326 306.408  0.00  0.00    +0.000 OA
BRANCH  23  25
ATOM     24  C   UNL     1     -43.159-154.692 304.950  0.00  0.00    +0.000 C 
ATOM     25  C   UNL     1     -42.379-156.062 305.233  0.00  0.00    +0.000 C 
ENDBRANCH  23  25
ENDBRANCH  15  23
ENDBRANCH  14  18
ENDBRANCH   1  14
TORSDOF 7
ENDMDL
MODEL 6
REMARK VINA RESULT:    -8.799      2.427      6.705
REMARK INTER + INTRA:         -12.919
REMARK INTER:                 -12.736
REMARK INTRA:                  -0.183
REMARK UNBOUND:                -0.519
REMARK  Name = 
REMARK  10 active torsions:
REMARK  status: ('A' for Active; 'I' for Inactive)
REMARK    1  A    between atoms: C_1  and  C_2
REMARK    2  A    between atoms: C_2  and  O_3
REMARK    3  A    between atoms: O_3  and  C_4
REMARK    4  A    between atoms: C_7  and  C_8
REMARK    5  A    between atoms: C_8  and  N_9
REMARK    6  A    between atoms: N_9  and  C_19
REMARK    7  A    between atoms: C_10  and  C_12
REMARK    8  A    between atoms: C_16  and  C_17
REMARK    9  A    between atoms: C_23  and  O_24
REMARK   10  A    between atoms: O_24  and  C_25
REMARK                            x       y       z     vdW  Elec       q    Type
REMARK                         _______ _______ _______ _____ _____    ______ ____
ROOT
ATOM      1  N   UNL     1     -40.970-161.608 309.800  0.00  0.00    +0.000 N 
ATOM      2  C   UNL     1     -41.071-162.705 308.911  0.00  0.00    +0.000 C 
ATOM      3  O   UNL     1     -42.089-163.358 308.834  0.00  0.00    +0.000 OA
ENDROOT
BRANCH   2   4
ATOM      4  C   UNL     1     -39.825-163.098 308.108  0.00  0.00    +0.000 A 
ATOM      5  C   UNL     1     -38.721-162.260 307.947  0.00  0.00    +0.000 A 
ATOM      6  C   UNL     1     -37.633-162.683 307.198  0.00  0.00    +0.000 A 
ATOM      7  C   UNL     1     -37.622-163.974 306.706  0.00  0.00    +0.000 A 
ATOM      8  C   UNL     1     -38.715-164.795 306.958  0.00  0.00    +0.000 A 
ATOM      9  C   UNL     1     -38.695-166.222 306.498  0.00  0.00    +0.000 C 
ATOM     10  N   UNL     1     -39.818-164.369 307.625  0.00  0.00    +0.000 NA
ENDBRANCH   2   4
BRANCH   1  11
ATOM     11  C   UNL     1     -41.626-161.698 311.108  0.00  0.00    +0.000 C 
ATOM     12  C   UNL     1     -40.958-162.441 312.252  0.00  0.00    +0.000 C 
ATOM     13  C   UNL     1     -41.262-160.978 312.382  0.00  0.00    +0.000 C 
ENDBRANCH   1  11
BRANCH   1  14
ATOM     14  C   UNL     1     -40.343-160.383 309.353  0.00  0.00    +0.000 C 
BRANCH  14  18
ATOM     15  C   UNL     1     -42.890-157.319 307.621  0.00  0.00    +0.000 A 
ATOM     16  C   UNL     1     -43.127-157.740 308.946  0.00  0.00    +0.000 A 
ATOM     17  C   UNL     1     -42.276-158.697 309.572  0.00  0.00    +0.000 A 
ATOM     18  C   UNL     1     -41.280-159.351 308.840  0.00  0.00    +0.000 A 
ATOM     19  C   UNL     1     -41.035-158.952 307.558  0.00  0.00    +0.000 A 
ATOM     20  C   UNL     1     -41.683-157.842 307.079  0.00  0.00    +0.000 A 
BRANCH  20  21
ATOM     21  O   UNL     1     -40.814-157.304 306.148  0.00  0.00    +0.000 OA
ATOM     22  C   UNL     1     -41.399-157.533 304.937  0.00  0.00    +0.000 C 
ENDBRANCH  20  21
BRANCH  15  23
ATOM     23  O   UNL     1     -43.604-156.236 307.095  0.00  0.00    +0.000 OA
BRANCH  23  25
ATOM     24  C   UNL     1     -45.602-157.211 305.457  0.00  0.00    +0.000 C 
ATOM     25  C   UNL     1     -45.021-156.237 306.587  0.00  0.00    +0.000 C 
ENDBRANCH  23  25
ENDBRANCH  15  23
ENDBRANCH  14  18
ENDBRANCH   1  14
TORSDOF 7
ENDMDL
MODEL 7
REMARK VINA RESULT:    -8.334      2.402      6.394
REMARK INTER + INTRA:         -12.264
REMARK INTER:                 -12.005
REMARK INTRA:                  -0.259
REMARK UNBOUND:                -0.519
REMARK  Name = 
REMARK  10 active torsions:
REMARK  status: ('A' for Active; 'I' for Inactive)
REMARK    1  A    between atoms: C_1  and  C_2
REMARK    2  A    between atoms: C_2  and  O_3
REMARK    3  A    between atoms: O_3  and  C_4
REMARK    4  A    between atoms: C_7  and  C_8
REMARK    5  A    between atoms: C_8  and  N_9
REMARK    6  A    between atoms: N_9  and  C_19
REMARK    7  A    between atoms: C_10  and  C_12
REMARK    8  A    between atoms: C_16  and  C_17
REMARK    9  A    between atoms: C_23  and  O_24
REMARK   10  A    between atoms: O_24  and  C_25
REMARK                            x       y       z     vdW  Elec       q    Type
REMARK                         _______ _______ _______ _____ _____    ______ ____
ROOT
ATOM      1  N   UNL     1     -41.559-159.064 308.921  0.00  0.00    +0.000 N 
ATOM      2  C   UNL     1     -41.099-159.916 307.888  0.00  0.00    +0.000 C 
ATOM      3  O   UNL     1     -41.219-159.608 306.722  0.00  0.00    +0.000 OA
ENDROOT
BRANCH   2   4
ATOM      4  C   UNL     1     -40.522-161.281 308.284  0.00  0.00    +0.000 A 
ATOM      5  C   UNL     1     -41.180-162.176 309.127  0.00  0.00    +0.000 A 
ATOM      6  C   UNL     1     -40.590-163.389 309.446  0.00  0.00    +0.000 A 
ATOM      7  C   UNL     1     -39.397-163.733 308.838  0.00  0.00    +0.000 A 
ATOM      8  C   UNL     1     -38.819-162.837 307.947  0.00  0.00    +0.000 A 
ATOM      9  C   UNL     1     -37.564-163.217 307.219  0.00  0.00    +0.000 C 
ATOM     10  N   UNL     1     -39.348-161.614 307.684  0.00  0.00    +0.000 NA
ENDBRANCH   2   4
BRANCH   1  11
ATOM     11  C   UNL     1     -42.796-158.306 308.711  0.00  0.00    +0.000 C 
ATOM     12  C   UNL     1     -42.807-156.795 308.869  0.00  0.00    +0.000 C 
ATOM     13  C   UNL     1     -43.155-157.416 307.548  0.00  0.00    +0.000 C 
ENDBRANCH   1  11
BRANCH   1  14
ATOM     14  C   UNL     1     -40.739-158.860 310.095  0.00  0.00    +0.000 C 
BRANCH  14  18
ATOM     15  C   UNL     1     -42.230-160.967 313.589  0.00  0.00    +0.000 A 
ATOM     16  C   UNL     1     -40.852-161.015 313.295  0.00  0.00    +0.000 A 
ATOM     17  C   UNL     1     -40.313-160.287 312.195  0.00  0.00    +0.000 A 
ATOM     18  C   UNL     1     -41.158-159.630 311.294  0.00  0.00    +0.000 A 
ATOM     19  C   UNL     1     -42.494-159.570 311.566  0.00  0.00    +0.000 A 
ATOM     20  C   UNL     1     -42.941-160.042 312.774  0.00  0.00    +0.000 A 
BRANCH  20  21
ATOM     21  O   UNL     1     -44.063-159.284 313.052  0.00  0.00    +0.000 OA
ATOM     22  C   UNL     1     -43.624-158.277 313.861  0.00  0.00    +0.000 C 
ENDBRANCH  20  21
BRANCH  15  23
ATOM     23  O   UNL     1     -42.708-161.517 314.785  0.00  0.00    +0.000 OA
BRANCH  23  25
ATOM     24  C   UNL     1     -41.782-161.803 317.371  0.00  0.00    +0.000 C 
ATOM     25  C   UNL     1     -41.914-162.243 315.837  0.00  0.00    +0.000 C 
ENDBRANCH  23  25
ENDBRANCH  15  23
ENDBRANCH  14  18
ENDBRANCH   1  14
TORSDOF 7
ENDMDL
MODEL 8
REMARK VINA RESULT:    -8.297      1.513      4.296
REMARK INTER + INTRA:         -12.211
REMARK INTER:                 -11.799
REMARK INTRA:                  -0.413
REMARK UNBOUND:                -0.519
REMARK  Name = 
REMARK  10 active torsions:
REMARK  status: ('A' for Active; 'I' for Inactive)
REMARK    1  A    between atoms: C_1  and  C_2
REMARK    2  A    between atoms: C_2  and  O_3
REMARK    3  A    between atoms: O_3  and  C_4
REMARK    4  A    between atoms: C_7  and  C_8
REMARK    5  A    between atoms: C_8  and  N_9
REMARK    6  A    between atoms: N_9  and  C_19
REMARK    7  A    between atoms: C_10  and  C_12
REMARK    8  A    between atoms: C_16  and  C_17
REMARK    9  A    between atoms: C_23  and  O_24
REMARK   10  A    between atoms: O_24  and  C_25
REMARK                            x       y       z     vdW  Elec       q    Type
REMARK                         _______ _______ _______ _____ _____    ______ ____
ROOT
ATOM      1  N   UNL     1     -41.716-159.274 308.909  0.00  0.00    +0.000 N 
ATOM      2  C   UNL     1     -42.019-158.726 310.179  0.00  0.00    +0.000 C 
ATOM      3  O   UNL     1     -42.371-157.572 310.296  0.00  0.00    +0.000 OA
ENDROOT
BRANCH   2   4
ATOM      4  C   UNL     1     -41.805-159.610 311.414  0.00  0.00    +0.000 A 
ATOM      5  C   UNL     1     -40.573-160.173 311.749  0.00  0.00    +0.000 A 
ATOM      6  C   UNL     1     -40.460-160.969 312.879  0.00  0.00    +0.000 A 
ATOM      7  C   UNL     1     -41.554-161.108 313.711  0.00  0.00    +0.000 A 
ATOM      8  C   UNL     1     -42.739-160.464 313.371  0.00  0.00    +0.000 A 
ATOM      9  C   UNL     1     -43.917-160.539 314.295  0.00  0.00    +0.000 C 
ATOM     10  N   UNL     1     -42.884-159.744 312.229  0.00  0.00    +0.000 NA
ENDBRANCH   2   4
BRANCH   1  11
ATOM     11  C   UNL     1     -41.048-158.427 307.916  0.00  0.00    +0.000 C 
ATOM     12  C   UNL     1     -41.334-158.607 306.435  0.00  0.00    +0.000 C 
ATOM     13  C   UNL     1     -41.639-157.301 307.107  0.00  0.00    +0.000 C 
ENDBRANCH   1  11
BRANCH   1  14
ATOM     14  C   UNL     1     -42.186-160.600 308.574  0.00  0.00    +0.000 C 
BRANCH  14  18
ATOM     15  C   UNL     1     -39.230-163.773 308.295  0.00  0.00    +0.000 A 
ATOM     16  C   UNL     1     -38.881-162.470 307.882  0.00  0.00    +0.000 A 
ATOM     17  C   UNL     1     -39.800-161.390 308.015  0.00  0.00    +0.000 A 
ATOM     18  C   UNL     1     -41.119-161.622 308.419  0.00  0.00    +0.000 A 
ATOM     19  C   UNL     1     -41.472-162.876 308.826  0.00  0.00    +0.000 A 
ATOM     20  C   UNL     1     -40.493-163.828 308.950  0.00  0.00    +0.000 A 
BRANCH  20  21
ATOM     21  O   UNL     1     -40.945-164.668 309.950  0.00  0.00    +0.000 OA
ATOM     22  C   UNL     1     -41.320-163.841 310.969  0.00  0.00    +0.000 C 
ENDBRANCH  20  21
BRANCH  15  23
ATOM     23  O   UNL     1     -38.253-164.774 308.349  0.00  0.00    +0.000 OA
BRANCH  23  25
ATOM     24  C   UNL     1     -37.750-165.928 305.891  0.00  0.00    +0.000 C 
ATOM     25  C   UNL     1     -37.318-165.196 307.248  0.00  0.00    +0.000 C 
ENDBRANCH  23  25
ENDBRANCH  15  23
ENDBRANCH  14  18
ENDBRANCH   1  14
TORSDOF 7
ENDMDL
MODEL 9
REMARK VINA RESULT:    -7.663      2.339      7.160
REMARK INTER + INTRA:         -11.319
REMARK INTER:                 -12.566
REMARK INTRA:                   1.248
REMARK UNBOUND:                -0.519
REMARK  Name = 
REMARK  10 active torsions:
REMARK  status: ('A' for Active; 'I' for Inactive)
REMARK    1  A    between atoms: C_1  and  C_2
REMARK    2  A    between atoms: C_2  and  O_3
REMARK    3  A    between atoms: O_3  and  C_4
REMARK    4  A    between atoms: C_7  and  C_8
REMARK    5  A    between atoms: C_8  and  N_9
REMARK    6  A    between atoms: N_9  and  C_19
REMARK    7  A    between atoms: C_10  and  C_12
REMARK    8  A    between atoms: C_16  and  C_17
REMARK    9  A    between atoms: C_23  and  O_24
REMARK   10  A    between atoms: O_24  and  C_25
REMARK                            x       y       z     vdW  Elec       q    Type
REMARK                         _______ _______ _______ _____ _____    ______ ____
ROOT
ATOM      1  N   UNL     1     -40.273-161.916 309.306  0.00  0.00    +0.000 N 
ATOM      2  C   UNL     1     -40.504-163.210 308.781  0.00  0.00    +0.000 C 
ATOM      3  O   UNL     1     -41.498-163.838 309.075  0.00  0.00    +0.000 OA
ENDROOT
BRANCH   2   4
ATOM      4  C   UNL     1     -39.417-163.832 307.895  0.00  0.00    +0.000 A 
ATOM      5  C   UNL     1     -38.187-163.222 307.649  0.00  0.00    +0.000 A 
ATOM      6  C   UNL     1     -37.257-163.843 306.829  0.00  0.00    +0.000 A 
ATOM      7  C   UNL     1     -37.529-165.111 306.349  0.00  0.00    +0.000 A 
ATOM      8  C   UNL     1     -38.739-165.707 306.686  0.00  0.00    +0.000 A 
ATOM      9  C   UNL     1     -39.027-167.108 306.240  0.00  0.00    +0.000 C 
ATOM     10  N   UNL     1     -39.690-165.079 307.425  0.00  0.00    +0.000 NA
ENDBRANCH   2   4
BRANCH   1  11
ATOM     11  C   UNL     1     -40.671-161.635 310.689  0.00  0.00    +0.000 C 
ATOM     12  C   UNL     1     -40.706-162.750 311.720  0.00  0.00    +0.000 C 
ATOM     13  C   UNL     1     -39.796-161.574 311.914  0.00  0.00    +0.000 C 
ENDBRANCH   1  11
BRANCH   1  14
ATOM     14  C   UNL     1     -39.777-160.872 308.437  0.00  0.00    +0.000 C 
BRANCH  14  18
ATOM     15  C   UNL     1     -42.462-157.457 308.343  0.00  0.00    +0.000 A 
ATOM     16  C   UNL     1     -41.980-157.985 307.127  0.00  0.00    +0.000 A 
ATOM     17  C   UNL     1     -41.148-159.142 307.112  0.00  0.00    +0.000 A 
ATOM     18  C   UNL     1     -40.668-159.690 308.305  0.00  0.00    +0.000 A 
ATOM     19  C   UNL     1     -41.128-159.194 309.491  0.00  0.00    +0.000 A 
ATOM     20  C   UNL     1     -42.138-158.266 309.468  0.00  0.00    +0.000 A 
BRANCH  20  21
ATOM     21  O   UNL     1     -42.822-158.464 310.653  0.00  0.00    +0.000 OA
ATOM     22  C   UNL     1     -41.886-158.319 311.635  0.00  0.00    +0.000 C 
ENDBRANCH  20  21
BRANCH  15  23
ATOM     23  O   UNL     1     -43.437-156.452 308.330  0.00  0.00    +0.000 OA
BRANCH  23  25
ATOM     24  C   UNL     1     -43.374-154.772 306.139  0.00  0.00    +0.000 C 
ATOM     25  C   UNL     1     -43.331-155.085 307.709  0.00  0.00    +0.000 C 
ENDBRANCH  23  25
ENDBRANCH  15  23
ENDBRANCH  14  18
ENDBRANCH   1  14
TORSDOF 7
ENDMDL
MODEL 10
REMARK VINA RESULT:    -7.614      3.336      6.081
REMARK INTER + INTRA:         -11.250
REMARK INTER:                 -10.664
REMARK INTRA:                  -0.586
REMARK UNBOUND:                -0.519
REMARK  Name = 
REMARK  10 active torsions:
REMARK  status: ('A' for Active; 'I' for Inactive)
REMARK    1  A    between atoms: C_1  and  C_2
REMARK    2  A    between atoms: C_2  and  O_3
REMARK    3  A    between atoms: O_3  and  C_4
REMARK    4  A    between atoms: C_7  and  C_8
REMARK    5  A    between atoms: C_8  and  N_9
REMARK    6  A    between atoms: N_9  and  C_19
REMARK    7  A    between atoms: C_10  and  C_12
REMARK    8  A    between atoms: C_16  and  C_17
REMARK    9  A    between atoms: C_23  and  O_24
REMARK   10  A    between atoms: O_24  and  C_25
REMARK                            x       y       z     vdW  Elec       q    Type
REMARK                         _______ _______ _______ _____ _____    ______ ____
ROOT
ATOM      1  N   UNL     1     -43.436-156.232 306.020  0.00  0.00    +0.000 N 
ATOM      2  C   UNL     1     -44.695-156.228 305.374  0.00  0.00    +0.000 C 
ATOM      3  O   UNL     1     -45.090-155.250 304.777  0.00  0.00    +0.000 OA
ENDROOT
BRANCH   2   4
ATOM      4  C   UNL     1     -45.585-157.467 305.525  0.00  0.00    +0.000 A 
ATOM      5  C   UNL     1     -46.051-157.931 306.755  0.00  0.00    +0.000 A 
ATOM      6  C   UNL     1     -46.846-159.066 306.812  0.00  0.00    +0.000 A 
ATOM      7  C   UNL     1     -47.248-159.661 305.631  0.00  0.00    +0.000 A 
ATOM      8  C   UNL     1     -46.817-159.114 304.428  0.00  0.00    +0.000 A 
ATOM      9  C   UNL     1     -47.298-159.697 303.132  0.00  0.00    +0.000 C 
ATOM     10  N   UNL     1     -45.977-158.050 304.360  0.00  0.00    +0.000 NA
ENDBRANCH   2   4
BRANCH   1  11
ATOM     11  C   UNL     1     -42.976-155.004 306.677  0.00  0.00    +0.000 C 
ATOM     12  C   UNL     1     -43.150-154.823 308.175  0.00  0.00    +0.000 C 
ATOM     13  C   UNL     1     -41.777-154.822 307.572  0.00  0.00    +0.000 C 
ENDBRANCH   1  11
BRANCH   1  14
ATOM     14  C   UNL     1     -42.579-157.392 305.906  0.00  0.00    +0.000 C 
BRANCH  14  18
ATOM     15  C   UNL     1     -41.223-159.360 309.535  0.00  0.00    +0.000 A 
ATOM     16  C   UNL     1     -42.458-158.678 309.544  0.00  0.00    +0.000 A 
ATOM     17  C   UNL     1     -42.968-158.074 308.359  0.00  0.00    +0.000 A 
ATOM     18  C   UNL     1     -42.188-158.012 307.199  0.00  0.00    +0.000 A 
ATOM     19  C   UNL     1     -40.993-158.670 307.172  0.00  0.00    +0.000 A 
ATOM     20  C   UNL     1     -40.660-159.473 308.233  0.00  0.00    +0.000 A 
BRANCH  20  21
ATOM     21  O   UNL     1     -39.859-160.459 307.688  0.00  0.00    +0.000 OA
ATOM     22  C   UNL     1     -40.590-161.607 307.783  0.00  0.00    +0.000 C 
ENDBRANCH  20  21
BRANCH  15  23
ATOM     23  O   UNL     1     -40.837-160.119 310.646  0.00  0.00    +0.000 OA
BRANCH  23  25
ATOM     24  C   UNL     1     -41.347-161.022 313.206  0.00  0.00    +0.000 C 
ATOM     25  C   UNL     1     -41.734-160.751 311.676  0.00  0.00    +0.000 C 
ENDBRANCH  23  25
ENDBRANCH  15  23
ENDBRANCH  14  18
ENDBRANCH   1  14
TORSDOF 7
ENDMDL
