REMARK  Name = 
REMARK  7 active torsions:
REMARK  status: ('A' for Active; 'I' for Inactive)
REMARK    1  A    between atoms: C_1  and  C_2
REMARK    2  A    between atoms: C_2  and  N_3
REMARK    3  A    between atoms: N_3  and  C_20
REMARK    4  A    between atoms: C_4  and  C_6
REMARK    5  A    between atoms: C_6  and  O_7
REMARK    6  A    between atoms: O_7  and  C_8
REMARK    7  A    between atoms: C_12  and  N_13
REMARK                            x       y       z     vdW  Elec       q    Type
REMARK                         _______ _______ _______ _____ _____    ______ ____
ROOT
ATOM      1  O   UNL     1      -1.851  -1.851  -1.273  0.00  0.00    +0.000 OA
ENDROOT
BRANCH   1   2
ATOM      2  C   UNL     1      -1.466  -2.913  -0.500  0.00  0.00    +0.000 A 
ATOM      3  C   UNL     1      -2.335  -3.276   0.526  0.00  0.00    +0.000 A 
ATOM      4  C   UNL     1      -1.948  -4.241   1.466  0.00  0.00    +0.000 A 
ATOM      5  C   UNL     1      -0.725  -4.908   1.350  0.00  0.00    +0.000 A 
ATOM      6  C   UNL     1       0.144  -4.556   0.334  0.00  0.00    +0.000 A 
ATOM      7  C   UNL     1      -0.239  -3.569  -0.575  0.00  0.00    +0.000 A 
BRANCH   6   8
ATOM      8  N   UNL     1       1.426  -5.118   0.227  0.00  0.00    +0.000 N 
ATOM      9  C   UNL     1       1.681  -6.517   0.027  0.00  0.00    +0.000 C 
ATOM     10  C   UNL     1       3.161  -6.677   0.361  0.00  0.00    +0.000 C 
ATOM     11  C   UNL     1       3.729  -5.321   0.041  0.00  0.00    +0.000 C 
ATOM     12  C   UNL     1       2.605  -4.437   0.505  0.00  0.00    +0.000 C 
ATOM     13  O   UNL     1       2.744  -3.346   1.052  0.00  0.00    +0.000 OA
ENDBRANCH   6   8
ENDBRANCH   1   2
BRANCH   1  14
ATOM     14  C   UNL     1      -1.344  -1.749  -2.597  0.00  0.00    +0.000 C 
BRANCH  14  16
ATOM     15  N   UNL     1       1.047  -0.934  -2.254  0.00  0.00    +0.000 N 
ATOM     16  C   UNL     1       0.170  -1.808  -2.920  0.00  0.00    +0.000 C 
ATOM     17  O   UNL     1       0.574  -2.676  -3.703  0.00  0.00    +0.000 OA
BRANCH  15  18
ATOM     18  C   UNL     1       2.525  -1.133  -2.447  0.00  0.00    +0.000 C 
ATOM     19  C   UNL     1       3.392  -0.007  -1.848  0.00  0.00    +0.000 C 
ATOM     20  C   UNL     1       4.888  -0.258  -1.795  0.00  0.00    +0.000 C 
ATOM     21  C   UNL     1       5.191  -1.566  -1.092  0.00  0.00    +0.000 C 
ATOM     22  C   UNL     1       4.466  -2.681  -1.806  0.00  0.00    +0.000 C 
ATOM     23  C   UNL     1       2.958  -2.461  -1.827  0.00  0.00    +0.000 C 
ENDBRANCH  15  18
BRANCH  15  25
ATOM     24  C   UNL     1       0.869   0.030   0.114  0.00  0.00    +0.000 C 
ATOM     25  C   UNL     1       0.562   0.151  -1.380  0.00  0.00    +0.000 C 
ENDBRANCH  15  25
ENDBRANCH  14  16
ENDBRANCH   1  14
TORSDOF 6
