REMARK  Name = 
REMARK  7 active torsions:
REMARK  status: ('A' for Active; 'I' for Inactive)
REMARK    1  A    between atoms: C_1  and  C_2
REMARK    2  A    between atoms: C_2  and  O_3
REMARK    3  A    between atoms: O_3  and  C_4
REMARK    4  A    between atoms: C_4  and  C_6
REMARK    5  A    between atoms: C_8  and  C_9
REMARK    6  A    between atoms: C_9  and  N_10
REMARK    7  A    between atoms: C_21  and  C_22
REMARK                            x       y       z     vdW  Elec       q    Type
REMARK                         _______ _______ _______ _____ _____    ______ ____
ROOT
ATOM      1  C   UNL     1       2.647  -2.356   3.127  0.00  0.00    +0.000 A 
ATOM      2  C   UNL     1       2.182  -3.417   3.954  0.00  0.00    +0.000 A 
ATOM      3  C   UNL     1       2.852  -3.299   5.155  0.00  0.00    +0.000 A 
ATOM      4  O   UNL     1       3.658  -2.197   5.122  0.00  0.00    +0.000 OA
ATOM      5  C   UNL     1       3.588  -1.674   3.872  0.00  0.00    +0.000 A 
ATOM      6  C   UNL     1       4.450  -0.507   3.587  0.00  0.00    +0.000 C 
ENDROOT
BRANCH   1   7
ATOM      7  C   UNL     1       2.281  -2.003   1.780  0.00  0.00    +0.000 C 
ATOM      8  O   UNL     1       3.112  -1.758   0.910  0.00  0.00    +0.000 OA
BRANCH   7   9
ATOM      9  O   UNL     1       0.933  -1.904   1.627  0.00  0.00    +0.000 OA
BRANCH   9  11
ATOM     10  C   UNL     1       0.901  -0.049   0.001  0.00  0.00    +0.000 C 
ATOM     11  C   UNL     1       0.476  -1.471   0.338  0.00  0.00    +0.000 C 
ENDBRANCH   9  11
ENDBRANCH   7   9
ENDBRANCH   1   7
BRANCH   3  12
ATOM     12  C   UNL     1       2.914  -4.145   6.388  0.00  0.00    +0.000 C 
BRANCH  12  13
ATOM     13  N   UNL     1       4.213  -4.820   6.603  0.00  0.00    +0.000 NA
ATOM     14  C   UNL     1       5.296  -3.834   6.829  0.00  0.00    +0.000 C 
ATOM     15  C   UNL     1       6.654  -4.502   7.040  0.00  0.00    +0.000 C 
ATOM     16  O   UNL     1       6.996  -5.330   5.914  0.00  0.00    +0.000 OA
ATOM     17  C   UNL     1       5.991  -6.341   5.721  0.00  0.00    +0.000 C 
ATOM     18  C   UNL     1       6.370  -7.223   4.523  0.00  0.00    +0.000 C 
ATOM     19  C   UNL     1       5.324  -8.315   4.295  0.00  0.00    +0.000 C 
ATOM     20  C   UNL     1       3.948  -7.706   4.069  0.00  0.00    +0.000 C 
ATOM     21  C   UNL     1       3.557  -6.825   5.247  0.00  0.00    +0.000 C 
ATOM     22  C   UNL     1       4.593  -5.707   5.477  0.00  0.00    +0.000 C 
ENDBRANCH  12  13
ENDBRANCH   3  12
TORSDOF 5
