REMARK  Name = 
REMARK  11 active torsions:
REMARK  status: ('A' for Active; 'I' for Inactive)
REMARK    1  A    between atoms: C_1  and  C_2
REMARK    2  A    between atoms: C_2  and  O_3
REMARK    3  A    between atoms: O_3  and  C_4
REMARK    4  A    between atoms: C_9  and  C_10
REMARK    5  A    between atoms: C_10  and  N_11
REMARK    6  A    between atoms: N_11  and  C_12
REMARK    7  A    between atoms: C_12  and  C_13
REMARK    8  A    between atoms: C_13  and  O_14
REMARK    9  A    between atoms: N_17  and  C_18
REMARK   10  A    between atoms: C_24  and  O_25
REMARK   11  A    between atoms: O_25  and  C_26
REMARK                            x       y       z     vdW  Elec       q    Type
REMARK                         _______ _______ _______ _____ _____    ______ ____
ROOT
ATOM      1  N   UNL     1       3.268   0.922   2.047  0.00  0.00    +0.000 N 
ATOM      2  C   UNL     1       2.792   0.438   3.325  0.00  0.00    +0.000 C 
ATOM      3  O   UNL     1       2.037  -0.581   3.432  0.00  0.00    +0.000 OA
ATOM      4  N   UNL     1       2.959   1.107   4.506  0.00  0.00    +0.000 N 
ATOM      5  H   UNL     1       2.137   0.920   5.084  0.00  0.00    +0.000 HD
ENDROOT
BRANCH   4   6
ATOM      6  C   UNL     1       3.343   2.433   4.583  0.00  0.00    +0.000 A 
ATOM      7  C   UNL     1       4.192   2.970   5.544  0.00  0.00    +0.000 A 
ATOM      8  C   UNL     1       4.683   4.286   5.414  0.00  0.00    +0.000 A 
ATOM      9  F   UNL     1       5.386   4.845   6.403  0.00  0.00    +0.000 F 
ATOM     10  C   UNL     1       4.402   5.055   4.317  0.00  0.00    +0.000 A 
ATOM     11  C   UNL     1       3.364   4.582   3.543  0.00  0.00    +0.000 A 
ATOM     12  C   UNL     1       2.730   3.292   3.748  0.00  0.00    +0.000 A 
BRANCH  12  13
ATOM     13  O   UNL     1       1.553   2.956   3.125  0.00  0.00    +0.000 OA
ATOM     14  C   UNL     1       0.698   1.967   2.495  0.00  0.00    +0.000 C 
ENDBRANCH  12  13
ENDBRANCH   4   6
BRANCH   1  15
ATOM     15  C   UNL     1       2.944   0.024   0.959  0.00  0.00    +0.000 C 
BRANCH  15  21
ATOM     16  C   UNL     1       2.402  -2.424   0.777  0.00  0.00    +0.000 A 
ATOM     17  C   UNL     1       2.848  -3.710   1.082  0.00  0.00    +0.000 A 
ATOM     18  C   UNL     1       4.183  -3.926   1.495  0.00  0.00    +0.000 A 
ATOM     19  C   UNL     1       5.113  -2.888   1.546  0.00  0.00    +0.000 A 
ATOM     20  C   UNL     1       4.693  -1.614   1.263  0.00  0.00    +0.000 A 
ATOM     21  C   UNL     1       3.347  -1.392   0.966  0.00  0.00    +0.000 A 
BRANCH  16  22
ATOM     22  O   UNL     1       1.038  -2.236   0.631  0.00  0.00    +0.000 OA
BRANCH  22  24
ATOM     23  C   UNL     1       0.467  -0.012  -0.499  0.00  0.00    +0.000 C 
ATOM     24  C   UNL     1       0.414  -1.535  -0.484  0.00  0.00    +0.000 C 
ENDBRANCH  22  24
ENDBRANCH  16  22
ENDBRANCH  15  21
ENDBRANCH   1  15
BRANCH   1  25
ATOM     25  C   UNL     1       3.604   2.363   1.490  0.00  0.00    +0.000 C 
BRANCH  25  26
ATOM     26  C   UNL     1       2.502   3.701   0.992  0.00  0.00    +0.000 C 
BRANCH  26  27
ATOM     27  O   UNL     1       1.472   4.546   1.664  0.00  0.00    +0.000 OA
ATOM     28  H   UNL     1       1.160   4.176   2.524  0.00  0.00    +0.000 HD
ENDBRANCH  26  27
ENDBRANCH  25  26
ENDBRANCH   1  25
TORSDOF 9
