REMARK  Name = 
REMARK  10 active torsions:
REMARK  status: ('A' for Active; 'I' for Inactive)
REMARK    1  A    between atoms: C_1  and  C_2
REMARK    2  A    between atoms: C_2  and  O_3
REMARK    3  A    between atoms: O_3  and  C_4
REMARK    4  A    between atoms: C_7  and  C_8
REMARK    5  A    between atoms: C_8  and  O_10
REMARK    6  A    between atoms: O_10  and  C_11
REMARK    7  A    between atoms: C_11  and  C_12
REMARK    8  A    between atoms: N_14  and  C_15
REMARK    9  A    between atoms: C_21  and  O_22
REMARK   10  A    between atoms: O_22  and  C_23
REMARK                            x       y       z     vdW  Elec       q    Type
REMARK                         _______ _______ _______ _____ _____    ______ ____
ROOT
ATOM      1  C   UNL     1       6.552  -1.905  -3.054  0.00  0.00    +0.000 C 
ATOM      2  O   UNL     1       6.941  -2.237  -4.172  0.00  0.00    +0.000 OA
ENDROOT
BRANCH   1   6
ATOM      3  C   UNL     1       2.355  -1.077  -2.486  0.00  0.00    +0.000 A 
ATOM      4  C   UNL     1       2.879  -1.355  -3.738  0.00  0.00    +0.000 A 
ATOM      5  C   UNL     1       4.232  -1.710  -3.859  0.00  0.00    +0.000 A 
ATOM      6  C   UNL     1       5.111  -1.679  -2.751  0.00  0.00    +0.000 A 
ATOM      7  C   UNL     1       4.574  -1.439  -1.482  0.00  0.00    +0.000 A 
ATOM      8  C   UNL     1       3.199  -1.205  -1.392  0.00  0.00    +0.000 A 
BRANCH   7   9
ATOM      9  O   UNL     1       5.355  -1.495  -0.355  0.00  0.00    +0.000 OA
ATOM     10  C   UNL     1       4.726  -1.179   0.894  0.00  0.00    +0.000 C 
ENDBRANCH   7   9
BRANCH   3  11
ATOM     11  O   UNL     1       1.007  -0.893  -2.352  0.00  0.00    +0.000 OA
BRANCH  11  13
ATOM     12  C   UNL     1       0.833   0.044  -0.004  0.00  0.00    +0.000 C 
ATOM     13  C   UNL     1       0.536   0.166  -1.495  0.00  0.00    +0.000 C 
ENDBRANCH  11  13
ENDBRANCH   3  11
ENDBRANCH   1   6
BRANCH   1  14
ATOM     14  O   UNL     1       7.368  -1.655  -2.016  0.00  0.00    +0.000 OA
BRANCH  14  15
ATOM     15  C   UNL     1       8.751  -1.966  -2.224  0.00  0.00    +0.000 C 
BRANCH  15  16
ATOM     16  C   UNL     1       9.041  -3.443  -2.549  0.00  0.00    +0.000 C 
ATOM     17  O   UNL     1       9.680  -3.753  -3.557  0.00  0.00    +0.000 OA
ATOM     18  N   UNL     1       8.659  -4.443  -1.682  0.00  0.00    +0.000 N 
ATOM     19  H   UNL     1       8.801  -5.362  -2.090  0.00  0.00    +0.000 HD
BRANCH  18  20
ATOM     20  C   UNL     1       7.946  -4.366  -0.396  0.00  0.00    +0.000 C 
ATOM     21  C   UNL     1       8.272  -5.589   0.489  0.00  0.00    +0.000 C 
ATOM     22  C   UNL     1       7.701  -5.449   1.911  0.00  0.00    +0.000 C 
ATOM     23  C   UNL     1       8.132  -4.154   2.597  0.00  0.00    +0.000 C 
ATOM     24  C   UNL     1       7.732  -2.985   1.750  0.00  0.00    +0.000 C 
ATOM     25  C   UNL     1       8.333  -3.117   0.386  0.00  0.00    +0.000 C 
ENDBRANCH  18  20
ENDBRANCH  15  16
ENDBRANCH  14  15
ENDBRANCH   1  14
TORSDOF 8
