REMARK  Name = 
REMARK  10 active torsions:
REMARK  status: ('A' for Active; 'I' for Inactive)
REMARK    1  A    between atoms: C_1  and  C_2
REMARK    2  A    between atoms: C_2  and  C_3
REMARK    3  A    between atoms: C_3  and  C_4
REMARK    4  A    between atoms: C_3  and  C_5
REMARK    5  A    between atoms: C_5  and  N_6
REMARK    6  A    between atoms: C_10  and  C_11
REMARK    7  A    between atoms: C_11  and  N_12
REMARK    8  A    between atoms: C_13  and  C_15
REMARK    9  A    between atoms: C_20  and  O_21
REMARK   10  A    between atoms: O_21  and  C_22
REMARK                            x       y       z     vdW  Elec       q    Type
REMARK                         _______ _______ _______ _____ _____    ______ ____
ROOT
ATOM      1  N   UNL     1      -1.224  -1.580   2.260  0.00  0.00    +0.000 N 
ATOM      2  C   UNL     1      -2.099  -2.150   1.383  0.00  0.00    +0.000 C 
ATOM      3  O   UNL     1      -3.330  -2.131   1.580  0.00  0.00    +0.000 OA
ATOM      4  H   UNL     1      -1.701  -1.398   3.133  0.00  0.00    +0.000 HD
ENDROOT
BRANCH   2   5
ATOM      5  C   UNL     1      -1.588  -2.829   0.211  0.00  0.00    +0.000 A 
ATOM      6  C   UNL     1      -2.090  -2.420  -1.046  0.00  0.00    +0.000 A 
ATOM      7  C   UNL     1      -1.573  -2.962  -2.216  0.00  0.00    +0.000 A 
ATOM      8  C   UNL     1      -0.493  -3.834  -2.128  0.00  0.00    +0.000 A 
ATOM      9  C   UNL     1       0.001  -4.233  -0.866  0.00  0.00    +0.000 A 
ATOM     10  C   UNL     1      -0.583  -3.787   0.337  0.00  0.00    +0.000 A 
BRANCH  10  11
ATOM     11  O   UNL     1       0.003  -4.202   1.514  0.00  0.00    +0.000 OA
BRANCH  11  12
ATOM     12  C   UNL     1      -0.683  -4.400   2.800  0.00  0.00    +0.000 C 
ATOM     13  F   UNL     1      -0.848  -3.321   3.623  0.00  0.00    +0.000 F 
ATOM     14  F   UNL     1      -1.906  -4.914   2.621  0.00  0.00    +0.000 F 
ENDBRANCH  11  12
ENDBRANCH  10  11
ENDBRANCH   2   5
BRANCH   1  15
ATOM     15  C   UNL     1       0.261  -1.707   2.347  0.00  0.00    +0.000 C 
BRANCH  15  20
ATOM     16  N   UNL     1       1.017   1.615   3.999  0.00  0.00    +0.000 NA
ATOM     17  C   UNL     1       2.490   1.505   3.830  0.00  0.00    +0.000 C 
ATOM     18  C   UNL     1       2.962   0.610   2.684  0.00  0.00    +0.000 C 
ATOM     19  O   UNL     1       2.297  -0.646   2.776  0.00  0.00    +0.000 OA
ATOM     20  C   UNL     1       0.883  -0.549   3.023  0.00  0.00    +0.000 C 
ATOM     21  C   UNL     1       0.468   0.226   4.226  0.00  0.00    +0.000 C 
BRANCH  16  22
ATOM     22  C   UNL     1       0.392   2.410   2.852  0.00  0.00    +0.000 C 
BRANCH  22  23
ATOM     23  C   UNL     1       0.812   2.239   1.298  0.00  0.00    +0.000 C 
ATOM     24  C   UNL     1       0.258   3.245   0.334  0.00  0.00    +0.000 C 
BRANCH  23  26
ATOM     25  C   UNL     1       0.948   0.248  -0.624  0.00  0.00    +0.000 C 
ATOM     26  C   UNL     1       0.446   0.904   0.628  0.00  0.00    +0.000 C 
ENDBRANCH  23  26
ENDBRANCH  22  23
ENDBRANCH  16  22
ENDBRANCH  15  20
ENDBRANCH   1  15
TORSDOF 8
