REMARK  Name = 
REMARK  6 active torsions:
REMARK  status: ('A' for Active; 'I' for Inactive)
REMARK    1  A    between atoms: C_1  and  C_2
REMARK    2  A    between atoms: C_2  and  C_3
REMARK    3  A    between atoms: C_3  and  C_4
REMARK    4  A    between atoms: C_6  and  C_7
REMARK    5  A    between atoms: C_12  and  C_13
REMARK    6  A    between atoms: C_17  and  C_18
REMARK                            x       y       z     vdW  Elec       q    Type
REMARK                         _______ _______ _______ _____ _____    ______ ____
ROOT
ATOM      1  C   UNL     1       0.483  -2.452  -1.627  0.00  0.00    +0.000 A 
ATOM      2  C   UNL     1      -0.517  -2.640  -0.622  0.00  0.00    +0.000 A 
ATOM      3  C   UNL     1      -0.676  -3.935  -0.177  0.00  0.00    +0.000 A 
ATOM      4  S   UNL     1       0.331  -4.971  -1.113  0.00  0.00    +0.000 S 
ATOM      5  C   UNL     1       0.990  -3.671  -2.028  0.00  0.00    +0.000 A 
ATOM      6  C   UNL     1       2.011  -3.897  -3.100  0.00  0.00    +0.000 C 
ENDROOT
BRANCH   3   7
ATOM      7  C   UNL     1      -1.457  -4.421   0.976  0.00  0.00    +0.000 C 
ATOM      8  O   UNL     1      -1.410  -5.581   1.392  0.00  0.00    +0.000 OA
ATOM      9  N   UNL     1      -2.149  -3.439   1.705  0.00  0.00    +0.000 N 
ATOM     10  C   UNL     1      -3.249  -2.666   1.141  0.00  0.00    +0.000 C 
ATOM     11  C   UNL     1      -3.112  -1.193   1.528  0.00  0.00    +0.000 C 
ATOM     12  C   UNL     1      -2.933  -1.005   3.044  0.00  0.00    +0.000 C 
ATOM     13  C   UNL     1      -2.600   0.458   3.349  0.00  0.00    +0.000 C 
ATOM     14  C   UNL     1      -1.839  -1.945   3.591  0.00  0.00    +0.000 C 
ATOM     15  C   UNL     1      -2.072  -3.400   3.161  0.00  0.00    +0.000 C 
ENDBRANCH   3   7
BRANCH   1  16
ATOM     16  C   UNL     1       0.950  -1.122  -2.162  0.00  0.00    +0.000 C 
BRANCH  16  18
ATOM     17  C   UNL     1       1.060   0.045   0.084  0.00  0.00    +0.000 C 
ATOM     18  C   UNL     1       0.506   0.085  -1.339  0.00  0.00    +0.000 C 
ENDBRANCH  16  18
ENDBRANCH   1  16
TORSDOF 3
