REMARK  Name = 
REMARK  5 active torsions:
REMARK  status: ('A' for Active; 'I' for Inactive)
REMARK    1  A    between atoms: C_1  and  C_2
REMARK    2  A    between atoms: C_2  and  C_3
REMARK    3  A    between atoms: C_6  and  N_7
REMARK    4  A    between atoms: C_8  and  C_10
REMARK    5  A    between atoms: C_10  and  N_11
REMARK                            x       y       z     vdW  Elec       q    Type
REMARK                         _______ _______ _______ _____ _____    ______ ____
ROOT
ATOM      1  N   UNL     1       3.009   5.390  -0.653  0.00  0.00    +0.000 N 
ATOM      2  C   UNL     1       4.011   6.344  -0.590  0.00  0.00    +0.000 C 
ATOM      3  O   UNL     1       4.571   6.597   0.478  0.00  0.00    +0.000 OA
ATOM      4  H   UNL     1       2.910   4.922   0.243  0.00  0.00    +0.000 HD
ENDROOT
BRANCH   1   8
ATOM      5  C   UNL     1       0.860   2.399  -0.854  0.00  0.00    +0.000 C 
ATOM      6  C   UNL     1       0.413   3.836  -0.529  0.00  0.00    +0.000 C 
ATOM      7  C   UNL     1       0.782   4.884  -1.591  0.00  0.00    +0.000 C 
ATOM      8  C   UNL     1       2.259   4.883  -1.848  0.00  0.00    +0.000 C 
ATOM      9  C   UNL     1       2.453   3.430  -2.321  0.00  0.00    +0.000 C 
ATOM     10  C   UNL     1       2.331   2.418  -1.173  0.00  0.00    +0.000 C 
BRANCH   5  12
ATOM     11  C   UNL     1       1.040   0.014   0.063  0.00  0.00    +0.000 C 
ATOM     12  C   UNL     1       0.518   1.431   0.276  0.00  0.00    +0.000 C 
ENDBRANCH   5  12
ENDBRANCH   1   8
BRANCH   2  13
ATOM     13  C   UNL     1       4.437   6.997  -1.882  0.00  0.00    +0.000 C 
BRANCH  13  14
ATOM     14  N   UNL     1       5.139   6.084  -2.784  0.00  0.00    +0.000 N 
ATOM     15  C   UNL     1       5.653   6.518  -4.018  0.00  0.00    +0.000 A 
ATOM     16  O   UNL     1       5.890   7.682  -4.369  0.00  0.00    +0.000 OA
ATOM     17  N   UNL     1       5.861   5.378  -4.800  0.00  0.00    +0.000 N 
ATOM     18  C   UNL     1       5.554   4.246  -4.057  0.00  0.00    +0.000 A 
ATOM     19  C   UNL     1       5.444   2.923  -4.493  0.00  0.00    +0.000 A 
ATOM     20  C   UNL     1       5.067   1.945  -3.573  0.00  0.00    +0.000 A 
ATOM     21  C   UNL     1       5.022   2.289  -2.217  0.00  0.00    +0.000 A 
ATOM     22  C   UNL     1       5.112   3.659  -1.799  0.00  0.00    +0.000 A 
ATOM     23  C   UNL     1       5.276   4.657  -2.757  0.00  0.00    +0.000 A 
ATOM     24  H   UNL     1       6.269   5.387  -5.717  0.00  0.00    +0.000 HD
ENDBRANCH  13  14
ENDBRANCH   2  13
TORSDOF 4
