REMARK  Name = 
REMARK  5 active torsions:
REMARK  status: ('A' for Active; 'I' for Inactive)
REMARK    1  A    between atoms: C_1  and  C_2
REMARK    2  A    between atoms: C_2  and  C_3
REMARK    3  A    between atoms: C_3  and  N_4
REMARK    4  A    between atoms: C_6  and  N_7
REMARK    5  A    between atoms: C_8  and  C_10
REMARK                            x       y       z     vdW  Elec       q    Type
REMARK                         _______ _______ _______ _____ _____    ______ ____
ROOT
ATOM      1  N   UNL     1       1.008  -5.865  -2.325  0.00  0.00    +0.000 N 
ATOM      2  C   UNL     1       0.529  -6.785  -3.226  0.00  0.00    +0.000 C 
ATOM      3  O   UNL     1       1.205  -7.784  -3.479  0.00  0.00    +0.000 OA
ATOM      4  H   UNL     1       1.912  -6.113  -1.937  0.00  0.00    +0.000 HD
ENDROOT
BRANCH   2   5
ATOM      5  C   UNL     1      -0.796  -6.580  -3.860  0.00  0.00    +0.000 A 
ATOM      6  C   UNL     1      -1.171  -5.335  -4.398  0.00  0.00    +0.000 A 
ATOM      7  C   UNL     1      -2.458  -5.111  -4.876  0.00  0.00    +0.000 A 
ATOM      8  C   UNL     1      -3.390  -6.146  -4.917  0.00  0.00    +0.000 A 
ATOM      9  C   UNL     1      -2.980  -7.410  -4.471  0.00  0.00    +0.000 A 
ATOM     10  N   UNL     1      -3.659  -8.609  -4.455  0.00  0.00    +0.000 N 
ATOM     11  C   UNL     1      -2.853  -9.604  -3.970  0.00  0.00    +0.000 A 
ATOM     12  C   UNL     1      -1.657  -9.034  -3.604  0.00  0.00    +0.000 A 
ATOM     13  C   UNL     1      -1.707  -7.653  -3.943  0.00  0.00    +0.000 A 
ATOM     14  H   UNL     1      -4.603  -8.738  -4.792  0.00  0.00    +0.000 HD
ENDBRANCH   2   5
BRANCH   1  17
ATOM     15  N   UNL     1       0.448  -2.224  -1.622  0.00  0.00    +0.000 N 
ATOM     16  C   UNL     1       1.087  -3.417  -2.160  0.00  0.00    +0.000 C 
ATOM     17  C   UNL     1       0.329  -4.692  -1.812  0.00  0.00    +0.000 C 
ATOM     18  C   UNL     1       0.103  -4.752  -0.320  0.00  0.00    +0.000 C 
ATOM     19  C   UNL     1      -0.781  -3.589   0.072  0.00  0.00    +0.000 C 
ATOM     20  C   UNL     1      -0.564  -2.293  -0.669  0.00  0.00    +0.000 C 
ATOM     21  O   UNL     1      -1.300  -1.356  -0.357  0.00  0.00    +0.000 OA
BRANCH  15  22
ATOM     22  C   UNL     1       0.908  -0.955  -2.198  0.00  0.00    +0.000 C 
BRANCH  22  24
ATOM     23  C   UNL     1       1.072   0.251   0.013  0.00  0.00    +0.000 C 
ATOM     24  C   UNL     1       0.534   0.300  -1.418  0.00  0.00    +0.000 C 
ENDBRANCH  22  24
ENDBRANCH  15  22
ENDBRANCH   1  17
TORSDOF 4
