REMARK  Name = 
REMARK  10 active torsions:
REMARK  status: ('A' for Active; 'I' for Inactive)
REMARK    1  A    between atoms: C_1  and  C_2
REMARK    2  A    between atoms: C_2  and  C_3
REMARK    3  A    between atoms: C_5  and  C_6
REMARK    4  A    between atoms: C_9  and  C_10
REMARK    5  A    between atoms: C_10  and  O_11
REMARK    6  A    between atoms: O_11  and  C_12
REMARK    7  A    between atoms: C_12  and  C_14
REMARK    8  A    between atoms: C_19  and  C_21
REMARK    9  A    between atoms: C_21  and  C_22
REMARK   10  A    between atoms: C_21  and  C_23
REMARK                            x       y       z     vdW  Elec       q    Type
REMARK                         _______ _______ _______ _____ _____    ______ ____
ROOT
ATOM      1  C   UNL     1       1.107  -2.404  -0.689  0.00  0.00    +0.000 A 
ATOM      2  C   UNL     1       0.325  -3.520  -1.169  0.00  0.00    +0.000 A 
ATOM      3  C   UNL     1       0.645  -4.791  -0.868  0.00  0.00    +0.000 A 
ATOM      4  C   UNL     1      -0.146  -5.962  -1.342  0.00  0.00    +0.000 C 
ATOM      5  C   UNL     1       1.787  -5.076   0.068  0.00  0.00    +0.000 A 
ATOM      6  N   UNL     1       2.066  -6.304   0.414  0.00  0.00    +0.000 NA
ATOM      7  C   UNL     1       3.055  -6.548   1.352  0.00  0.00    +0.000 A 
ATOM      8  C   UNL     1       3.535  -5.513   2.096  0.00  0.00    +0.000 A 
ATOM      9  C   UNL     1       3.444  -4.118   1.494  0.00  0.00    +0.000 A 
ATOM     10  O   UNL     1       4.283  -3.280   1.770  0.00  0.00    +0.000 OA
ATOM     11  N   UNL     1       2.459  -3.958   0.532  0.00  0.00    +0.000 N 
ATOM     12  C   UNL     1       2.175  -2.675   0.086  0.00  0.00    +0.000 A 
ENDROOT
BRANCH   1  14
ATOM     13  C   UNL     1       1.067   0.042   0.024  0.00  0.00    +0.000 C 
ATOM     14  C   UNL     1       0.617  -1.005  -0.995  0.00  0.00    +0.000 C 
ENDBRANCH   1  14
BRANCH   7  15
ATOM     15  C   UNL     1       3.576  -8.073   1.411  0.00  0.00    +0.000 C 
BRANCH  15  16
ATOM     16  O   UNL     1       4.858  -8.534   0.760  0.00  0.00    +0.000 OA
BRANCH  16  17
ATOM     17  C   UNL     1       5.056  -8.548  -0.613  0.00  0.00    +0.000 C 
ATOM     18  O   UNL     1       4.140  -8.431  -1.426  0.00  0.00    +0.000 OA
BRANCH  17  19
ATOM     19  C   UNL     1       6.634  -8.403  -1.065  0.00  0.00    +0.000 C 
ATOM     20  C   UNL     1       7.360  -9.669  -0.604  0.00  0.00    +0.000 C 
ATOM     21  C   UNL     1       8.833  -9.411  -0.896  0.00  0.00    +0.000 C 
ATOM     22  C   UNL     1       9.014  -7.916  -0.718  0.00  0.00    +0.000 C 
ATOM     23  N   UNL     1       7.677  -7.352  -0.656  0.00  0.00    +0.000 N 
ATOM     24  C   UNL     1       7.657  -5.959  -0.515  0.00  0.00    +0.000 C 
ATOM     25  O   UNL     1       8.648  -5.326  -0.142  0.00  0.00    +0.000 OA
BRANCH  24  26
ATOM     26  C   UNL     1       6.361  -5.216  -0.606  0.00  0.00    +0.000 C 
ATOM     27  C   UNL     1       5.559  -5.350  -1.897  0.00  0.00    +0.000 C 
ATOM     28  C   UNL     1       5.610  -5.868   0.451  0.00  0.00    +0.000 C 
ENDBRANCH  24  26
ENDBRANCH  17  19
ENDBRANCH  16  17
ENDBRANCH  15  16
ENDBRANCH   7  15
TORSDOF 6
