REMARK  Name = 
REMARK  8 active torsions:
REMARK  status: ('A' for Active; 'I' for Inactive)
REMARK    1  A    between atoms: C_1  and  C_2
REMARK    2  A    between atoms: C_2  and  C_3
REMARK    3  A    between atoms: C_3  and  O_4
REMARK    4  A    between atoms: C_3  and  C_12
REMARK    5  A    between atoms: O_4  and  C_5
REMARK    6  A    between atoms: N_14  and  C_15
REMARK    7  A    between atoms: N_14  and  C_16
REMARK    8  A    between atoms: N_19  and  C_20
REMARK                            x       y       z     vdW  Elec       q    Type
REMARK                         _______ _______ _______ _____ _____    ______ ____
ROOT
ATOM      1  C   UNL     1       0.468  -2.138   3.203  0.00  0.00    +0.000 C 
ATOM      2  O   UNL     1       1.298  -2.700   3.921  0.00  0.00    +0.000 OA
ATOM      3  N   UNL     1      -0.886  -2.527   3.152  0.00  0.00    +0.000 N 
ATOM      4  C   UNL     1      -1.920  -1.611   2.679  0.00  0.00    +0.000 C 
ENDROOT
BRANCH   3   5
ATOM      5  C   UNL     1      -1.348  -3.675   3.978  0.00  0.00    +0.000 C 
ATOM      6  C   UNL     1      -2.762  -4.179   3.570  0.00  0.00    +0.000 C 
ATOM      7  C   UNL     1      -2.805  -5.652   3.924  0.00  0.00    +0.000 C 
ATOM      8  N   UNL     1      -1.435  -6.048   3.864  0.00  0.00    +0.000 N 
ATOM      9  C   UNL     1      -0.549  -4.984   3.831  0.00  0.00    +0.000 C 
ATOM     10  O   UNL     1       0.667  -5.124   3.669  0.00  0.00    +0.000 OA
BRANCH   8  11
ATOM     11  C   UNL     1      -0.987  -7.376   3.872  0.00  0.00    +0.000 A 
ATOM     12  C   UNL     1      -1.353  -8.241   2.842  0.00  0.00    +0.000 A 
ATOM     13  C   UNL     1      -0.819  -9.532   2.802  0.00  0.00    +0.000 A 
ATOM     14  C   UNL     1       0.054  -9.967   3.803  0.00  0.00    +0.000 A 
ATOM     15  C   UNL     1       0.421  -9.104   4.834  0.00  0.00    +0.000 A 
ATOM     16  C   UNL     1      -0.082  -7.809   4.851  0.00  0.00    +0.000 A 
ATOM     17  F   UNL     1       0.266  -6.999   5.863  0.00  0.00    +0.000 F 
ENDBRANCH   8  11
ENDBRANCH   3   5
BRANCH   1  18
ATOM     18  C   UNL     1       0.964  -0.987   2.282  0.00  0.00    +0.000 C 
BRANCH  18  20
ATOM     19  C   UNL     1       1.492  -0.589  -0.197  0.00  0.00    +0.000 C 
ATOM     20  C   UNL     1       0.707  -1.412   0.809  0.00  0.00    +0.000 C 
ENDBRANCH  18  20
BRANCH  18  21
ATOM     21  O   UNL     1       0.345   0.227   2.819  0.00  0.00    +0.000 OA
BRANCH  21  22
ATOM     22  C   UNL     1       0.677   1.438   2.276  0.00  0.00    +0.000 A 
ATOM     23  C   UNL     1       1.430   2.347   3.019  0.00  0.00    +0.000 A 
ATOM     24  C   UNL     1       1.937   3.504   2.405  0.00  0.00    +0.000 A 
ATOM     25  C   UNL     1       1.821   3.664   1.028  0.00  0.00    +0.000 A 
ATOM     26  C   UNL     1       0.970   2.822   0.336  0.00  0.00    +0.000 A 
ATOM     27  C   UNL     1       0.219   1.876   1.036  0.00  0.00    +0.000 A 
ATOM     28 CL   UNL     1      -1.174   1.227   0.241  0.00  0.00    +0.000 Cl
ENDBRANCH  21  22
ENDBRANCH  18  21
ENDBRANCH   1  18
TORSDOF 6
