REMARK  Name = 
REMARK  10 active torsions:
REMARK  status: ('A' for Active; 'I' for Inactive)
REMARK    1  A    between atoms: C_1  and  C_2
REMARK    2  A    between atoms: C_2  and  O_3
REMARK    3  A    between atoms: O_3  and  C_4
REMARK    4  A    between atoms: C_7  and  C_8
REMARK    5  A    between atoms: C_8  and  N_9
REMARK    6  A    between atoms: N_9  and  C_19
REMARK    7  A    between atoms: C_10  and  C_12
REMARK    8  A    between atoms: C_16  and  C_17
REMARK    9  A    between atoms: C_23  and  O_24
REMARK   10  A    between atoms: O_24  and  C_25
REMARK                            x       y       z     vdW  Elec       q    Type
REMARK                         _______ _______ _______ _____ _____    ______ ____
ROOT
ATOM      1  N   UNL     1       6.887  -3.225   3.326  0.00  0.00    +0.000 N 
ATOM      2  C   UNL     1       7.532  -4.460   3.575  0.00  0.00    +0.000 C 
ATOM      3  O   UNL     1       7.168  -5.187   4.474  0.00  0.00    +0.000 OA
ENDROOT
BRANCH   2   4
ATOM      4  C   UNL     1       8.761  -4.814   2.729  0.00  0.00    +0.000 A 
ATOM      5  C   UNL     1       9.352  -3.928   1.828  0.00  0.00    +0.000 A 
ATOM      6  C   UNL     1      10.458  -4.324   1.091  0.00  0.00    +0.000 A 
ATOM      7  C   UNL     1      11.018  -5.563   1.339  0.00  0.00    +0.000 A 
ATOM      8  C   UNL     1      10.435  -6.379   2.302  0.00  0.00    +0.000 A 
ATOM      9  C   UNL     1      11.066  -7.696   2.641  0.00  0.00    +0.000 C 
ATOM     10  N   UNL     1       9.308  -6.034   2.976  0.00  0.00    +0.000 NA
ENDBRANCH   2   4
BRANCH   1  11
ATOM     11  C   UNL     1       6.408  -2.437   4.466  0.00  0.00    +0.000 C 
ATOM     12  C   UNL     1       6.434  -0.919   4.416  0.00  0.00    +0.000 C 
ATOM     13  C   UNL     1       5.131  -1.644   4.577  0.00  0.00    +0.000 C 
ENDBRANCH   1  11
BRANCH   1  14
ATOM     14  C   UNL     1       6.598  -2.833   1.964  0.00  0.00    +0.000 C 
BRANCH  14  18
ATOM     15  C   UNL     1       2.395  -2.268   1.018  0.00  0.00    +0.000 A 
ATOM     16  C   UNL     1       2.859  -3.561   1.338  0.00  0.00    +0.000 A 
ATOM     17  C   UNL     1       4.216  -3.778   1.715  0.00  0.00    +0.000 A 
ATOM     18  C   UNL     1       5.153  -2.743   1.631  0.00  0.00    +0.000 A 
ATOM     19  C   UNL     1       4.720  -1.485   1.327  0.00  0.00    +0.000 A 
ATOM     20  C   UNL     1       3.370  -1.256   1.243  0.00  0.00    +0.000 A 
BRANCH  20  21
ATOM     21  O   UNL     1       3.216   0.068   1.610  0.00  0.00    +0.000 OA
ATOM     22  C   UNL     1       1.999   0.437   1.116  0.00  0.00    +0.000 C 
ENDBRANCH  20  21
BRANCH  15  23
ATOM     23  O   UNL     1       1.024  -2.040   0.852  0.00  0.00    +0.000 OA
BRANCH  23  25
ATOM     24  C   UNL     1       0.168   0.072  -0.708  0.00  0.00    +0.000 C 
ATOM     25  C   UNL     1       0.332  -1.483  -0.363  0.00  0.00    +0.000 C 
ENDBRANCH  23  25
ENDBRANCH  15  23
ENDBRANCH  14  18
ENDBRANCH   1  14
TORSDOF 7
