REMARK  Name = 
REMARK  7 active torsions:
REMARK  status: ('A' for Active; 'I' for Inactive)
REMARK    1  A    between atoms: C_1  and  C_2
REMARK    2  A    between atoms: C_2  and  C_3
REMARK    3  A    between atoms: C_3  and  C_4
REMARK    4  A    between atoms: C_7  and  N_8
REMARK    5  A    between atoms: C_9  and  C_11
REMARK    6  A    between atoms: C_11  and  S_12
REMARK    7  A    between atoms: S_12  and  C_13
REMARK                            x       y       z     vdW  Elec       q    Type
REMARK                         _______ _______ _______ _____ _____    ______ ____
ROOT
ATOM      1  N   UNL     1       2.754   1.320   4.328  0.00  0.00    +0.000 N 
ATOM      2  C   UNL     1       3.571   2.277   4.867  0.00  0.00    +0.000 C 
ATOM      3  O   UNL     1       4.751   2.315   4.540  0.00  0.00    +0.000 OA
ATOM      4  H   UNL     1       3.198   0.811   3.570  0.00  0.00    +0.000 HD
ENDROOT
BRANCH   1   8
ATOM      5  C   UNL     1       0.520  -0.982   2.647  0.00  0.00    +0.000 C 
ATOM      6  C   UNL     1       1.344  -1.355   3.883  0.00  0.00    +0.000 C 
ATOM      7  C   UNL     1       1.114  -0.386   5.034  0.00  0.00    +0.000 C 
ATOM      8  C   UNL     1       1.349   1.068   4.637  0.00  0.00    +0.000 C 
ATOM      9  C   UNL     1       0.458   1.466   3.480  0.00  0.00    +0.000 C 
ATOM     10  C   UNL     1       0.628   0.504   2.341  0.00  0.00    +0.000 C 
BRANCH   5  11
ATOM     11  C   UNL     1       0.983  -1.825   1.440  0.00  0.00    +0.000 C 
BRANCH  11  13
ATOM     12  C   UNL     1       1.094  -0.033  -0.459  0.00  0.00    +0.000 C 
ATOM     13  C   UNL     1       0.494  -1.346   0.061  0.00  0.00    +0.000 C 
ENDBRANCH  11  13
ENDBRANCH   5  11
ENDBRANCH   1   8
BRANCH   2  14
ATOM     14  C   UNL     1       3.021   3.166   5.960  0.00  0.00    +0.000 C 
BRANCH  14  15
ATOM     15  S   UNL     1       1.664   4.246   5.461  0.00  0.00    +0.000 S 
BRANCH  15  16
ATOM     16  C   UNL     1       2.277   5.190   4.153  0.00  0.00    +0.000 A 
ATOM     17  N   UNL     1       2.814   4.777   3.027  0.00  0.00    +0.000 NA
ATOM     18  N   UNL     1       2.976   5.885   2.207  0.00  0.00    +0.000 NA
ATOM     19  C   UNL     1       2.517   6.937   2.854  0.00  0.00    +0.000 A 
ATOM     20  C   UNL     1       2.397   8.317   2.522  0.00  0.00    +0.000 A 
ATOM     21  C   UNL     1       1.863   9.175   3.416  0.00  0.00    +0.000 A 
ATOM     22  C   UNL     1       1.404   8.728   4.722  0.00  0.00    +0.000 A 
ATOM     23  C   UNL     1       1.510   7.428   5.035  0.00  0.00    +0.000 A 
ATOM     24  N   UNL     1       2.063   6.546   4.106  0.00  0.00    +0.000 N 
ENDBRANCH  15  16
ENDBRANCH  14  15
ENDBRANCH   2  14
TORSDOF 6
