MODEL 1
REMARK VINA RESULT:   -10.153      0.000      0.000
REMARK INTER + INTRA:          -5.722
REMARK INTER:                 -11.340
REMARK INTRA:                   5.617
REMARK UNBOUND:                 5.617
REMARK  Name = 
REMARK  8 active torsions:
REMARK  status: ('A' for Active; 'I' for Inactive)
REMARK    1  A    between atoms: C_1  and  C_2
REMARK    2  A    between atoms: C_2  and  C_3
REMARK    3  A    between atoms: C_6  and  C_7
REMARK    4  A    between atoms: C_7  and  N_8
REMARK    5  A    between atoms: C_15  and  S_16
REMARK    6  A    between atoms: S_16  and  N_19
REMARK    7  A    between atoms: C_21  and  C_22
REMARK    8  A    between atoms: C_24  and  C_25
REMARK                            x       y       z     vdW  Elec       q    Type
REMARK                         _______ _______ _______ _____ _____    ______ ____
ROOT
ATOM      1  C   UNL     1     -41.190-160.641 310.615  0.00  0.00    +0.000 A 
ATOM      2  C   UNL     1     -41.284-161.859 311.204  0.00  0.00    +0.000 A 
ATOM      3  C   UNL     1     -41.201-162.635 310.101  0.00  0.00    +0.000 A 
ATOM      4  C   UNL     1     -40.909-162.081 308.621  0.00  0.00    +0.000 A 
ATOM      5  C   UNL     1     -40.935-160.762 308.025  0.00  0.00    +0.000 A 
ATOM      6  C   UNL     1     -40.995-159.861 308.982  0.00  0.00    +0.000 A 
ENDROOT
BRANCH   6   7
ATOM      7  S   UNL     1     -42.423-158.136 308.332  0.00  0.00    +0.000 S 
ATOM      8  O   UNL     1     -43.732-158.757 308.368  0.00  0.00    +0.000 OA
ATOM      9  O   UNL     1     -42.204-156.894 309.049  0.00  0.00    +0.000 OA
BRANCH   7  10
ATOM     10  N   UNL     1     -42.071-157.759 306.441  0.00  0.00    +0.000 NA
ATOM     11  C   UNL     1     -41.231-156.755 306.980  0.00  0.00    +0.000 C 
ATOM     12  C   UNL     1     -42.396-155.629 307.425  0.00  0.00    +0.000 C 
ATOM     13  C   UNL     1     -44.204-156.751 307.910  0.00  0.00    +0.000 C 
ATOM     14  O   UNL     1     -43.060-154.147 306.049  0.00  0.00    +0.000 OA
ATOM     15  C   UNL     1     -43.650-155.509 304.759  0.00  0.00    +0.000 C 
ATOM     16  C   UNL     1     -44.427-154.884 303.714  0.00  0.00    +0.000 C 
ATOM     17  C   UNL     1     -42.786-157.054 304.877  0.00  0.00    +0.000 C 
ENDBRANCH   7  10
ENDBRANCH   6   7
BRANCH   1  19
ATOM     18  C   UNL     1     -41.349-157.850 312.432  0.00  0.00    +0.000 C 
ATOM     19  C   UNL     1     -42.498-159.599 311.543  0.00  0.00    +0.000 C 
ENDBRANCH   1  19
BRANCH   4  20
ATOM     20  C   UNL     1     -40.156-163.008 307.729  0.00  0.00    +0.000 C 
BRANCH  20  21
ATOM     21  N   UNL     1     -38.856-163.495 308.255  0.00  0.00    +0.000 NA
ATOM     22  C   UNL     1     -37.690-163.133 307.417  0.00  0.00    +0.000 C 
ATOM     23  C   UNL     1     -37.449-164.097 306.246  0.00  0.00    +0.000 C 
ATOM     24  O   UNL     1     -37.426-165.498 306.511  0.00  0.00    +0.000 OA
ATOM     25  C   UNL     1     -38.627-165.832 307.237  0.00  0.00    +0.000 C 
ATOM     26  C   UNL     1     -38.807-164.967 308.485  0.00  0.00    +0.000 C 
ENDBRANCH  20  21
ENDBRANCH   4  20
TORSDOF 5
ENDMDL
MODEL 2
REMARK VINA RESULT:   -10.078      1.263      1.907
REMARK INTER + INTRA:          -5.640
REMARK INTER:                 -11.675
REMARK INTRA:                   6.036
REMARK UNBOUND:                 5.617
REMARK  Name = 
REMARK  8 active torsions:
REMARK  status: ('A' for Active; 'I' for Inactive)
REMARK    1  A    between atoms: C_1  and  C_2
REMARK    2  A    between atoms: C_2  and  C_3
REMARK    3  A    between atoms: C_6  and  C_7
REMARK    4  A    between atoms: C_7  and  N_8
REMARK    5  A    between atoms: C_15  and  S_16
REMARK    6  A    between atoms: S_16  and  N_19
REMARK    7  A    between atoms: C_21  and  C_22
REMARK    8  A    between atoms: C_24  and  C_25
REMARK                            x       y       z     vdW  Elec       q    Type
REMARK                         _______ _______ _______ _____ _____    ______ ____
ROOT
ATOM      1  C   UNL     1     -40.754-159.048 311.487  0.00  0.00    +0.000 A 
ATOM      2  C   UNL     1     -40.612-159.913 312.521  0.00  0.00    +0.000 A 
ATOM      3  C   UNL     1     -40.536-161.068 311.824  0.00  0.00    +0.000 A 
ATOM      4  C   UNL     1     -40.484-161.159 310.221  0.00  0.00    +0.000 A 
ATOM      5  C   UNL     1     -40.760-160.215 309.158  0.00  0.00    +0.000 A 
ATOM      6  C   UNL     1     -40.846-159.006 309.670  0.00  0.00    +0.000 A 
ENDROOT
BRANCH   6   7
ATOM      7  S   UNL     1     -42.566-157.839 308.612  0.00  0.00    +0.000 S 
ATOM      8  O   UNL     1     -43.692-158.746 308.711  0.00  0.00    +0.000 OA
ATOM      9  O   UNL     1     -42.711-156.470 309.069  0.00  0.00    +0.000 OA
BRANCH   7  10
ATOM     10  N   UNL     1     -42.129-157.747 306.703  0.00  0.00    +0.000 NA
ATOM     11  C   UNL     1     -41.291-156.688 307.127  0.00  0.00    +0.000 C 
ATOM     12  C   UNL     1     -42.449-155.492 307.353  0.00  0.00    +0.000 C 
ATOM     13  C   UNL     1     -44.298-156.504 307.917  0.00  0.00    +0.000 C 
ATOM     14  O   UNL     1     -43.025-154.216 305.750  0.00  0.00    +0.000 OA
ATOM     15  C   UNL     1     -43.591-155.742 304.647  0.00  0.00    +0.000 C 
ATOM     16  C   UNL     1     -44.311-155.264 303.490  0.00  0.00    +0.000 C 
ATOM     17  C   UNL     1     -42.765-157.266 305.024  0.00  0.00    +0.000 C 
ENDBRANCH   7  10
ENDBRANCH   6   7
BRANCH   1  19
ATOM     18  C   UNL     1     -43.650-159.130 313.137  0.00  0.00    +0.000 C 
ATOM     19  C   UNL     1     -42.092-157.831 312.109  0.00  0.00    +0.000 C 
ENDBRANCH   1  19
BRANCH   4  20
ATOM     20  C   UNL     1     -39.705-162.305 309.671  0.00  0.00    +0.000 C 
BRANCH  20  21
ATOM     21  N   UNL     1     -40.358-163.058 308.571  0.00  0.00    +0.000 NA
ATOM     22  C   UNL     1     -41.346-164.062 309.027  0.00  0.00    +0.000 C 
ATOM     23  C   UNL     1     -40.721-165.407 309.426  0.00  0.00    +0.000 C 
ATOM     24  O   UNL     1     -39.800-166.022 308.527  0.00  0.00    +0.000 OA
ATOM     25  C   UNL     1     -38.793-165.047 308.187  0.00  0.00    +0.000 C 
ATOM     26  C   UNL     1     -39.403-163.749 307.658  0.00  0.00    +0.000 C 
ENDBRANCH  20  21
ENDBRANCH   4  20
TORSDOF 5
ENDMDL
MODEL 3
REMARK VINA RESULT:    -9.624      1.380      1.748
REMARK INTER + INTRA:          -5.132
REMARK INTER:                 -11.313
REMARK INTRA:                   6.181
REMARK UNBOUND:                 5.617
REMARK  Name = 
REMARK  8 active torsions:
REMARK  status: ('A' for Active; 'I' for Inactive)
REMARK    1  A    between atoms: C_1  and  C_2
REMARK    2  A    between atoms: C_2  and  C_3
REMARK    3  A    between atoms: C_6  and  C_7
REMARK    4  A    between atoms: C_7  and  N_8
REMARK    5  A    between atoms: C_15  and  S_16
REMARK    6  A    between atoms: S_16  and  N_19
REMARK    7  A    between atoms: C_21  and  C_22
REMARK    8  A    between atoms: C_24  and  C_25
REMARK                            x       y       z     vdW  Elec       q    Type
REMARK                         _______ _______ _______ _____ _____    ______ ____
ROOT
ATOM      1  C   UNL     1     -41.309-159.635 309.885  0.00  0.00    +0.000 A 
ATOM      2  C   UNL     1     -41.829-160.708 310.529  0.00  0.00    +0.000 A 
ATOM      3  C   UNL     1     -41.712-161.626 309.545  0.00  0.00    +0.000 A 
ATOM      4  C   UNL     1     -40.984-161.359 308.137  0.00  0.00    +0.000 A 
ATOM      5  C   UNL     1     -40.550-160.161 307.448  0.00  0.00    +0.000 A 
ATOM      6  C   UNL     1     -40.583-159.148 308.288  0.00  0.00    +0.000 A 
ENDROOT
BRANCH   6   7
ATOM      7  S   UNL     1     -41.361-157.250 307.179  0.00  0.00    +0.000 S 
ATOM      8  O   UNL     1     -41.561-156.297 308.253  0.00  0.00    +0.000 OA
ATOM      9  O   UNL     1     -40.557-156.872 306.032  0.00  0.00    +0.000 OA
BRANCH   7  10
ATOM     10  N   UNL     1     -43.152-157.658 306.496  0.00  0.00    +0.000 NA
ATOM     11  C   UNL     1     -42.516-157.507 305.241  0.00  0.00    +0.000 C 
ATOM     12  C   UNL     1     -42.413-155.831 305.182  0.00  0.00    +0.000 C 
ATOM     13  C   UNL     1     -42.254-155.137 307.246  0.00  0.00    +0.000 C 
ATOM     14  O   UNL     1     -44.000-154.670 304.367  0.00  0.00    +0.000 OA
ATOM     15  C   UNL     1     -45.289-155.393 305.665  0.00  0.00    +0.000 C 
ATOM     16  C   UNL     1     -46.518-154.637 305.600  0.00  0.00    +0.000 C 
ATOM     17  C   UNL     1     -44.880-157.004 306.285  0.00  0.00    +0.000 C 
ENDBRANCH   7  10
ENDBRANCH   6   7
BRANCH   1  19
ATOM     18  C   UNL     1     -41.806-157.587 312.468  0.00  0.00    +0.000 C 
ATOM     19  C   UNL     1     -42.479-158.208 310.387  0.00  0.00    +0.000 C 
ENDBRANCH   1  19
BRANCH   4  20
ATOM     20  C   UNL     1     -40.317-162.545 307.528  0.00  0.00    +0.000 C 
BRANCH  20  21
ATOM     21  N   UNL     1     -39.099-163.028 308.225  0.00  0.00    +0.000 NA
ATOM     22  C   UNL     1     -37.855-162.898 307.433  0.00  0.00    +0.000 C 
ATOM     23  C   UNL     1     -37.620-164.060 306.457  0.00  0.00    +0.000 C 
ATOM     24  O   UNL     1     -37.733-165.394 306.948  0.00  0.00    +0.000 OA
ATOM     25  C   UNL     1     -39.002-165.514 307.622  0.00  0.00    +0.000 C 
ATOM     26  C   UNL     1     -39.189-164.440 308.695  0.00  0.00    +0.000 C 
ENDBRANCH  20  21
ENDBRANCH   4  20
TORSDOF 5
ENDMDL
