MODEL 1
REMARK VINA RESULT:    -9.939      0.000      0.000
REMARK INTER + INTRA:         -13.763
REMARK INTER:                 -13.425
REMARK INTRA:                  -0.338
REMARK UNBOUND:                -0.338
REMARK  Name = 
REMARK  8 active torsions:
REMARK  status: ('A' for Active; 'I' for Inactive)
REMARK    1  A    between atoms: C_1  and  C_2
REMARK    2  A    between atoms: C_2  and  C_3
REMARK    3  A    between atoms: C_3  and  O_4
REMARK    4  A    between atoms: C_3  and  C_12
REMARK    5  A    between atoms: O_4  and  C_5
REMARK    6  A    between atoms: N_14  and  C_15
REMARK    7  A    between atoms: N_14  and  C_16
REMARK    8  A    between atoms: N_19  and  C_20
REMARK                            x       y       z     vdW  Elec       q    Type
REMARK                         _______ _______ _______ _____ _____    ______ ____
ROOT
ATOM      1  C   UNL     1     -41.162-161.148 311.188  0.00  0.00    +0.000 C 
ATOM      2  O   UNL     1     -40.193-161.195 311.950  0.00  0.00    +0.000 OA
ATOM      3  N   UNL     1     -41.527-162.221 310.349  0.00  0.00    +0.000 N 
ATOM      4  C   UNL     1     -42.881-162.338 309.815  0.00  0.00    +0.000 C 
ENDROOT
BRANCH   3   5
ATOM      5  C   UNL     1     -40.709-163.463 310.354  0.00  0.00    +0.000 C 
ATOM      6  C   UNL     1     -41.559-164.744 310.119  0.00  0.00    +0.000 C 
ATOM      7  C   UNL     1     -40.636-165.751 309.463  0.00  0.00    +0.000 C 
ATOM      8  N   UNL     1     -39.670-164.935 308.802  0.00  0.00    +0.000 N 
ATOM      9  C   UNL     1     -39.689-163.611 309.209  0.00  0.00    +0.000 C 
ATOM     10  O   UNL     1     -39.004-162.732 308.676  0.00  0.00    +0.000 OA
BRANCH   8  11
ATOM     11  C   UNL     1     -38.749-165.398 307.853  0.00  0.00    +0.000 A 
ATOM     12  C   UNL     1     -37.454-164.884 307.830  0.00  0.00    +0.000 A 
ATOM     13  C   UNL     1     -36.512-165.423 306.949  0.00  0.00    +0.000 A 
ATOM     14  C   UNL     1     -36.871-166.453 306.075  0.00  0.00    +0.000 A 
ATOM     15  C   UNL     1     -38.165-166.968 306.096  0.00  0.00    +0.000 A 
ATOM     16  C   UNL     1     -39.089-166.455 306.998  0.00  0.00    +0.000 A 
ATOM     17  F   UNL     1     -40.337-166.950 306.989  0.00  0.00    +0.000 F 
ENDBRANCH   8  11
ENDBRANCH   3   5
BRANCH   1  18
ATOM     18  C   UNL     1     -41.973-159.823 311.125  0.00  0.00    +0.000 C 
BRANCH  18  20
ATOM     19  C   UNL     1     -43.584-160.021 313.112  0.00  0.00    +0.000 C 
ATOM     20  C   UNL     1     -42.304-159.398 312.584  0.00  0.00    +0.000 C 
ENDBRANCH  18  20
BRANCH  18  21
ATOM     21  O   UNL     1     -41.194-158.937 310.257  0.00  0.00    +0.000 OA
BRANCH  21  22
ATOM     22  C   UNL     1     -41.756-158.484 309.095  0.00  0.00    +0.000 A 
ATOM     23  C   UNL     1     -42.833-157.599 309.146  0.00  0.00    +0.000 A 
ATOM     24  C   UNL     1     -43.288-156.981 307.970  0.00  0.00    +0.000 A 
ATOM     25  C   UNL     1     -42.570-157.130 306.787  0.00  0.00    +0.000 A 
ATOM     26  C   UNL     1     -41.588-158.102 306.730  0.00  0.00    +0.000 A 
ATOM     27  C   UNL     1     -41.379-158.934 307.832  0.00  0.00    +0.000 A 
ATOM     28 CL   UNL     1     -40.547-160.424 307.551  0.00  0.00    +0.000 Cl
ENDBRANCH  21  22
ENDBRANCH  18  21
ENDBRANCH   1  18
TORSDOF 6
ENDMDL
MODEL 2
REMARK VINA RESULT:    -9.829      2.384      4.014
REMARK INTER + INTRA:         -13.615
REMARK INTER:                 -12.874
REMARK INTRA:                  -0.741
REMARK UNBOUND:                -0.338
REMARK  Name = 
REMARK  8 active torsions:
REMARK  status: ('A' for Active; 'I' for Inactive)
REMARK    1  A    between atoms: C_1  and  C_2
REMARK    2  A    between atoms: C_2  and  C_3
REMARK    3  A    between atoms: C_3  and  O_4
REMARK    4  A    between atoms: C_3  and  C_12
REMARK    5  A    between atoms: O_4  and  C_5
REMARK    6  A    between atoms: N_14  and  C_15
REMARK    7  A    between atoms: N_14  and  C_16
REMARK    8  A    between atoms: N_19  and  C_20
REMARK                            x       y       z     vdW  Elec       q    Type
REMARK                         _______ _______ _______ _____ _____    ______ ____
ROOT
ATOM      1  C   UNL     1     -41.839-158.336 308.618  0.00  0.00    +0.000 C 
ATOM      2  O   UNL     1     -40.972-158.363 307.742  0.00  0.00    +0.000 OA
ATOM      3  N   UNL     1     -41.782-159.139 309.775  0.00  0.00    +0.000 N 
ATOM      4  C   UNL     1     -42.529-158.787 310.979  0.00  0.00    +0.000 C 
ENDROOT
BRANCH   3   5
ATOM      5  C   UNL     1     -40.644-160.081 309.955  0.00  0.00    +0.000 C 
ATOM      6  C   UNL     1     -40.574-160.671 311.392  0.00  0.00    +0.000 C 
ATOM      7  C   UNL     1     -39.917-162.031 311.260  0.00  0.00    +0.000 C 
ATOM      8  N   UNL     1     -40.229-162.421 309.922  0.00  0.00    +0.000 N 
ATOM      9  C   UNL     1     -40.704-161.385 309.137  0.00  0.00    +0.000 C 
ATOM     10  O   UNL     1     -41.129-161.549 307.989  0.00  0.00    +0.000 OA
BRANCH   8  11
ATOM     11  C   UNL     1     -40.052-163.712 309.406  0.00  0.00    +0.000 A 
ATOM     12  C   UNL     1     -40.949-164.725 309.740  0.00  0.00    +0.000 A 
ATOM     13  C   UNL     1     -40.826-165.982 309.140  0.00  0.00    +0.000 A 
ATOM     14  C   UNL     1     -39.794-166.234 308.233  0.00  0.00    +0.000 A 
ATOM     15  C   UNL     1     -38.895-165.222 307.897  0.00  0.00    +0.000 A 
ATOM     16  C   UNL     1     -39.042-163.963 308.467  0.00  0.00    +0.000 A 
ATOM     17  F   UNL     1     -38.155-163.008 308.148  0.00  0.00    +0.000 F 
ENDBRANCH   8  11
ENDBRANCH   3   5
BRANCH   1  18
ATOM     18  C   UNL     1     -43.068-157.408 308.397  0.00  0.00    +0.000 C 
BRANCH  18  20
ATOM     19  C   UNL     1     -43.724-154.943 308.675  0.00  0.00    +0.000 C 
ATOM     20  C   UNL     1     -42.585-155.937 308.535  0.00  0.00    +0.000 C 
ENDBRANCH  18  20
BRANCH  18  21
ATOM     21  O   UNL     1     -43.677-157.871 307.147  0.00  0.00    +0.000 OA
BRANCH  21  22
ATOM     22  C   UNL     1     -44.062-156.947 306.214  0.00  0.00    +0.000 A 
ATOM     23  C   UNL     1     -45.391-156.525 306.165  0.00  0.00    +0.000 A 
ATOM     24  C   UNL     1     -45.753-155.444 305.346  0.00  0.00    +0.000 A 
ATOM     25  C   UNL     1     -44.766-154.699 304.707  0.00  0.00    +0.000 A 
ATOM     26  C   UNL     1     -43.480-155.205 304.668  0.00  0.00    +0.000 A 
ATOM     27  C   UNL     1     -43.217-156.460 305.220  0.00  0.00    +0.000 A 
ATOM     28 CL   UNL     1     -41.776-157.265 304.703  0.00  0.00    +0.000 Cl
ENDBRANCH  21  22
ENDBRANCH  18  21
ENDBRANCH   1  18
TORSDOF 6
ENDMDL
MODEL 3
REMARK VINA RESULT:    -9.660      1.852      2.463
REMARK INTER + INTRA:         -13.387
REMARK INTER:                 -12.859
REMARK INTRA:                  -0.528
REMARK UNBOUND:                -0.338
REMARK  Name = 
REMARK  8 active torsions:
REMARK  status: ('A' for Active; 'I' for Inactive)
REMARK    1  A    between atoms: C_1  and  C_2
REMARK    2  A    between atoms: C_2  and  C_3
REMARK    3  A    between atoms: C_3  and  O_4
REMARK    4  A    between atoms: C_3  and  C_12
REMARK    5  A    between atoms: O_4  and  C_5
REMARK    6  A    between atoms: N_14  and  C_15
REMARK    7  A    between atoms: N_14  and  C_16
REMARK    8  A    between atoms: N_19  and  C_20
REMARK                            x       y       z     vdW  Elec       q    Type
REMARK                         _______ _______ _______ _____ _____    ______ ____
ROOT
ATOM      1  C   UNL     1     -41.323-159.857 309.326  0.00  0.00    +0.000 C 
ATOM      2  O   UNL     1     -40.192-159.399 309.150  0.00  0.00    +0.000 OA
ATOM      3  N   UNL     1     -41.559-161.212 309.636  0.00  0.00    +0.000 N 
ATOM      4  C   UNL     1     -42.801-161.637 310.275  0.00  0.00    +0.000 C 
ENDROOT
BRANCH   3   5
ATOM      5  C   UNL     1     -40.408-162.149 309.741  0.00  0.00    +0.000 C 
ATOM      6  C   UNL     1     -40.752-163.437 310.542  0.00  0.00    +0.000 C 
ATOM      7  C   UNL     1     -39.850-164.527 309.999  0.00  0.00    +0.000 C 
ATOM      8  N   UNL     1     -39.579-164.100 308.665  0.00  0.00    +0.000 N 
ATOM      9  C   UNL     1     -39.923-162.780 308.422  0.00  0.00    +0.000 C 
ATOM     10  O   UNL     1     -39.866-162.264 307.302  0.00  0.00    +0.000 OA
BRANCH   8  11
ATOM     11  C   UNL     1     -38.988-164.898 307.675  0.00  0.00    +0.000 A 
ATOM     12  C   UNL     1     -39.603-166.084 307.279  0.00  0.00    +0.000 A 
ATOM     13  C   UNL     1     -39.064-166.821 306.220  0.00  0.00    +0.000 A 
ATOM     14  C   UNL     1     -37.898-166.390 305.581  0.00  0.00    +0.000 A 
ATOM     15  C   UNL     1     -37.282-165.204 305.976  0.00  0.00    +0.000 A 
ATOM     16  C   UNL     1     -37.841-164.454 307.003  0.00  0.00    +0.000 A 
ATOM     17  F   UNL     1     -37.222-163.326 307.384  0.00  0.00    +0.000 F 
ENDBRANCH   8  11
ENDBRANCH   3   5
BRANCH   1  18
ATOM     18  C   UNL     1     -42.533-158.897 309.143  0.00  0.00    +0.000 C 
BRANCH  18  20
ATOM     19  C   UNL     1     -42.304-158.302 311.628  0.00  0.00    +0.000 C 
ATOM     20  C   UNL     1     -42.413-157.772 310.210  0.00  0.00    +0.000 C 
ENDBRANCH  18  20
BRANCH  18  21
ATOM     21  O   UNL     1     -42.545-158.564 307.717  0.00  0.00    +0.000 OA
BRANCH  21  22
ATOM     22  C   UNL     1     -43.092-157.376 307.317  0.00  0.00    +0.000 A 
ATOM     23  C   UNL     1     -44.460-157.155 307.476  0.00  0.00    +0.000 A 
ATOM     24  C   UNL     1     -44.995-155.876 307.250  0.00  0.00    +0.000 A 
ATOM     25  C   UNL     1     -44.142-154.801 307.020  0.00  0.00    +0.000 A 
ATOM     26  C   UNL     1     -42.813-155.061 306.743  0.00  0.00    +0.000 A 
ATOM     27  C   UNL     1     -42.375-156.383 306.653  0.00  0.00    +0.000 A 
ATOM     28 CL   UNL     1     -40.889-156.669 305.814  0.00  0.00    +0.000 Cl
ENDBRANCH  21  22
ENDBRANCH  18  21
ENDBRANCH   1  18
TORSDOF 6
ENDMDL
MODEL 4
REMARK VINA RESULT:    -9.544      4.162      8.223
REMARK INTER + INTRA:         -13.231
REMARK INTER:                 -13.206
REMARK INTRA:                  -0.025
REMARK UNBOUND:                -0.338
REMARK  Name = 
REMARK  8 active torsions:
REMARK  status: ('A' for Active; 'I' for Inactive)
REMARK    1  A    between atoms: C_1  and  C_2
REMARK    2  A    between atoms: C_2  and  C_3
REMARK    3  A    between atoms: C_3  and  O_4
REMARK    4  A    between atoms: C_3  and  C_12
REMARK    5  A    between atoms: O_4  and  C_5
REMARK    6  A    between atoms: N_14  and  C_15
REMARK    7  A    between atoms: N_14  and  C_16
REMARK    8  A    between atoms: N_19  and  C_20
REMARK                            x       y       z     vdW  Elec       q    Type
REMARK                         _______ _______ _______ _____ _____    ______ ____
ROOT
ATOM      1  C   UNL     1     -40.960-160.031 310.747  0.00  0.00    +0.000 C 
ATOM      2  O   UNL     1     -40.544-159.001 311.281  0.00  0.00    +0.000 OA
ATOM      3  N   UNL     1     -41.285-160.103 309.377  0.00  0.00    +0.000 N 
ATOM      4  C   UNL     1     -41.331-161.383 308.676  0.00  0.00    +0.000 C 
ENDROOT
BRANCH   3   5
ATOM      5  C   UNL     1     -41.145-158.889 308.528  0.00  0.00    +0.000 C 
ATOM      6  C   UNL     1     -40.786-159.225 307.052  0.00  0.00    +0.000 C 
ATOM      7  C   UNL     1     -41.351-158.098 306.211  0.00  0.00    +0.000 C 
ATOM      8  N   UNL     1     -42.439-157.611 306.997  0.00  0.00    +0.000 N 
ATOM      9  C   UNL     1     -42.426-158.063 308.306  0.00  0.00    +0.000 C 
ATOM     10  O   UNL     1     -43.341-157.839 309.105  0.00  0.00    +0.000 OA
BRANCH   8  11
ATOM     11  C   UNL     1     -43.426-156.730 306.534  0.00  0.00    +0.000 A 
ATOM     12  C   UNL     1     -44.633-157.230 306.048  0.00  0.00    +0.000 A 
ATOM     13  C   UNL     1     -45.651-156.343 305.685  0.00  0.00    +0.000 A 
ATOM     14  C   UNL     1     -45.453-154.963 305.780  0.00  0.00    +0.000 A 
ATOM     15  C   UNL     1     -44.247-154.461 306.265  0.00  0.00    +0.000 A 
ATOM     16  C   UNL     1     -43.250-155.345 306.660  0.00  0.00    +0.000 A 
ATOM     17  F   UNL     1     -42.088-154.844 307.105  0.00  0.00    +0.000 F 
ENDBRANCH   8  11
ENDBRANCH   3   5
BRANCH   1  18
ATOM     18  C   UNL     1     -41.179-161.280 311.647  0.00  0.00    +0.000 C 
BRANCH  18  20
ATOM     19  C   UNL     1     -41.129-163.768 311.023  0.00  0.00    +0.000 C 
ATOM     20  C   UNL     1     -40.365-162.455 311.037  0.00  0.00    +0.000 C 
ENDBRANCH  18  20
BRANCH  18  21
ATOM     21  O   UNL     1     -40.904-160.822 313.011  0.00  0.00    +0.000 OA
BRANCH  21  22
ATOM     22  C   UNL     1     -41.739-161.210 314.023  0.00  0.00    +0.000 A 
ATOM     23  C   UNL     1     -41.329-162.200 314.917  0.00  0.00    +0.000 A 
ATOM     24  C   UNL     1     -42.092-162.466 316.065  0.00  0.00    +0.000 A 
ATOM     25  C   UNL     1     -43.165-161.642 316.390  0.00  0.00    +0.000 A 
ATOM     26  C   UNL     1     -43.626-160.754 315.435  0.00  0.00    +0.000 A 
ATOM     27  C   UNL     1     -43.042-160.743 314.167  0.00  0.00    +0.000 A 
ATOM     28 CL   UNL     1     -43.955-160.026 312.883  0.00  0.00    +0.000 Cl
ENDBRANCH  21  22
ENDBRANCH  18  21
ENDBRANCH   1  18
TORSDOF 6
ENDMDL
MODEL 5
REMARK VINA RESULT:    -9.530      3.347      7.897
REMARK INTER + INTRA:         -13.211
REMARK INTER:                 -12.977
REMARK INTRA:                  -0.233
REMARK UNBOUND:                -0.338
REMARK  Name = 
REMARK  8 active torsions:
REMARK  status: ('A' for Active; 'I' for Inactive)
REMARK    1  A    between atoms: C_1  and  C_2
REMARK    2  A    between atoms: C_2  and  C_3
REMARK    3  A    between atoms: C_3  and  O_4
REMARK    4  A    between atoms: C_3  and  C_12
REMARK    5  A    between atoms: O_4  and  C_5
REMARK    6  A    between atoms: N_14  and  C_15
REMARK    7  A    between atoms: N_14  and  C_16
REMARK    8  A    between atoms: N_19  and  C_20
REMARK                            x       y       z     vdW  Elec       q    Type
REMARK                         _______ _______ _______ _____ _____    ______ ____
ROOT
ATOM      1  C   UNL     1     -41.169-161.201 309.861  0.00  0.00    +0.000 C 
ATOM      2  O   UNL     1     -42.083-161.920 309.451  0.00  0.00    +0.000 OA
ATOM      3  N   UNL     1     -41.231-159.793 309.828  0.00  0.00    +0.000 N 
ATOM      4  C   UNL     1     -40.389-158.977 310.698  0.00  0.00    +0.000 C 
ENDROOT
BRANCH   3   5
ATOM      5  C   UNL     1     -42.435-159.128 309.260  0.00  0.00    +0.000 C 
ATOM      6  C   UNL     1     -42.892-157.898 310.095  0.00  0.00    +0.000 C 
ATOM      7  C   UNL     1     -43.580-156.959 309.125  0.00  0.00    +0.000 C 
ATOM      8  N   UNL     1     -42.974-157.275 307.871  0.00  0.00    +0.000 N 
ATOM      9  C   UNL     1     -42.257-158.460 307.883  0.00  0.00    +0.000 C 
ATOM     10  O   UNL     1     -41.576-158.845 306.928  0.00  0.00    +0.000 OA
BRANCH   8  11
ATOM     11  C   UNL     1     -43.100-156.505 306.707  0.00  0.00    +0.000 A 
ATOM     12  C   UNL     1     -43.862-156.975 305.639  0.00  0.00    +0.000 A 
ATOM     13  C   UNL     1     -44.068-156.158 304.525  0.00  0.00    +0.000 A 
ATOM     14  C   UNL     1     -43.489-154.887 304.464  0.00  0.00    +0.000 A 
ATOM     15  C   UNL     1     -42.726-154.415 305.531  0.00  0.00    +0.000 A 
ATOM     16  C   UNL     1     -42.554-155.215 306.653  0.00  0.00    +0.000 A 
ATOM     17  F   UNL     1     -41.799-154.752 307.662  0.00  0.00    +0.000 F 
ENDBRANCH   8  11
ENDBRANCH   3   5
BRANCH   1  18
ATOM     18  C   UNL     1     -39.879-161.894 310.384  0.00  0.00    +0.000 C 
BRANCH  18  20
ATOM     19  C   UNL     1     -41.038-161.994 312.671  0.00  0.00    +0.000 C 
ATOM     20  C   UNL     1     -39.778-161.620 311.911  0.00  0.00    +0.000 C 
ENDBRANCH  18  20
BRANCH  18  21
ATOM     21  O   UNL     1     -39.952-163.268 309.884  0.00  0.00    +0.000 OA
BRANCH  21  22
ATOM     22  C   UNL     1     -39.223-163.612 308.778  0.00  0.00    +0.000 A 
ATOM     23  C   UNL     1     -38.648-162.616 307.990  0.00  0.00    +0.000 A 
ATOM     24  C   UNL     1     -37.744-162.961 306.973  0.00  0.00    +0.000 A 
ATOM     25  C   UNL     1     -37.305-164.276 306.854  0.00  0.00    +0.000 A 
ATOM     26  C   UNL     1     -37.976-165.261 307.556  0.00  0.00    +0.000 A 
ATOM     27  C   UNL     1     -39.095-164.921 308.319  0.00  0.00    +0.000 A 
ATOM     28 CL   UNL     1     -40.184-166.198 308.737  0.00  0.00    +0.000 Cl
ENDBRANCH  21  22
ENDBRANCH  18  21
ENDBRANCH   1  18
TORSDOF 6
ENDMDL
MODEL 6
REMARK VINA RESULT:    -8.403      2.935      4.469
REMARK INTER + INTRA:         -11.689
REMARK INTER:                 -10.976
REMARK INTRA:                  -0.713
REMARK UNBOUND:                -0.338
REMARK  Name = 
REMARK  8 active torsions:
REMARK  status: ('A' for Active; 'I' for Inactive)
REMARK    1  A    between atoms: C_1  and  C_2
REMARK    2  A    between atoms: C_2  and  C_3
REMARK    3  A    between atoms: C_3  and  O_4
REMARK    4  A    between atoms: C_3  and  C_12
REMARK    5  A    between atoms: O_4  and  C_5
REMARK    6  A    between atoms: N_14  and  C_15
REMARK    7  A    between atoms: N_14  and  C_16
REMARK    8  A    between atoms: N_19  and  C_20
REMARK                            x       y       z     vdW  Elec       q    Type
REMARK                         _______ _______ _______ _____ _____    ______ ____
ROOT
ATOM      1  C   UNL     1     -41.849-158.116 308.110  0.00  0.00    +0.000 C 
ATOM      2  O   UNL     1     -40.925-158.122 307.294  0.00  0.00    +0.000 OA
ATOM      3  N   UNL     1     -41.857-158.931 309.260  0.00  0.00    +0.000 N 
ATOM      4  C   UNL     1     -42.688-158.604 310.415  0.00  0.00    +0.000 C 
ENDROOT
BRANCH   3   5
ATOM      5  C   UNL     1     -40.720-159.858 309.506  0.00  0.00    +0.000 C 
ATOM      6  C   UNL     1     -40.691-160.401 310.964  0.00  0.00    +0.000 C 
ATOM      7  C   UNL     1     -40.022-161.759 310.897  0.00  0.00    +0.000 C 
ATOM      8  N   UNL     1     -40.290-162.196 309.565  0.00  0.00    +0.000 N 
ATOM      9  C   UNL     1     -40.746-161.189 308.730  0.00  0.00    +0.000 C 
ATOM     10  O   UNL     1     -41.134-161.394 307.576  0.00  0.00    +0.000 OA
BRANCH   8  11
ATOM     11  C   UNL     1     -40.089-163.502 309.097  0.00  0.00    +0.000 A 
ATOM     12  C   UNL     1     -39.043-163.773 308.217  0.00  0.00    +0.000 A 
ATOM     13  C   UNL     1     -38.785-165.093 307.837  0.00  0.00    +0.000 A 
ATOM     14  C   UNL     1     -39.588-166.135 308.311  0.00  0.00    +0.000 A 
ATOM     15  C   UNL     1     -40.634-165.866 309.191  0.00  0.00    +0.000 A 
ATOM     16  C   UNL     1     -40.865-164.557 309.596  0.00  0.00    +0.000 A 
ATOM     17  F   UNL     1     -41.890-164.314 310.428  0.00  0.00    +0.000 F 
ENDBRANCH   8  11
ENDBRANCH   3   5
BRANCH   1  18
ATOM     18  C   UNL     1     -43.074-157.204 307.816  0.00  0.00    +0.000 C 
BRANCH  18  20
ATOM     19  C   UNL     1     -42.189-154.798 307.704  0.00  0.00    +0.000 C 
ATOM     20  C   UNL     1     -42.855-155.858 308.563  0.00  0.00    +0.000 C 
ENDBRANCH  18  20
BRANCH  18  21
ATOM     21  O   UNL     1     -43.225-157.224 306.359  0.00  0.00    +0.000 OA
BRANCH  21  22
ATOM     22  C   UNL     1     -44.481-157.160 305.821  0.00  0.00    +0.000 A 
ATOM     23  C   UNL     1     -45.164-158.337 305.514  0.00  0.00    +0.000 A 
ATOM     24  C   UNL     1     -46.518-158.287 305.145  0.00  0.00    +0.000 A 
ATOM     25  C   UNL     1     -47.215-157.086 305.237  0.00  0.00    +0.000 A 
ATOM     26  C   UNL     1     -46.497-155.919 305.420  0.00  0.00    +0.000 A 
ATOM     27  C   UNL     1     -45.102-155.968 305.457  0.00  0.00    +0.000 A 
ATOM     28 CL   UNL     1     -44.251-154.491 305.163  0.00  0.00    +0.000 Cl
ENDBRANCH  21  22
ENDBRANCH  18  21
ENDBRANCH   1  18
TORSDOF 6
ENDMDL
MODEL 7
REMARK VINA RESULT:    -8.325      3.356      8.437
REMARK INTER + INTRA:         -11.583
REMARK INTER:                 -10.674
REMARK INTRA:                  -0.909
REMARK UNBOUND:                -0.338
REMARK  Name = 
REMARK  8 active torsions:
REMARK  status: ('A' for Active; 'I' for Inactive)
REMARK    1  A    between atoms: C_1  and  C_2
REMARK    2  A    between atoms: C_2  and  C_3
REMARK    3  A    between atoms: C_3  and  O_4
REMARK    4  A    between atoms: C_3  and  C_12
REMARK    5  A    between atoms: O_4  and  C_5
REMARK    6  A    between atoms: N_14  and  C_15
REMARK    7  A    between atoms: N_14  and  C_16
REMARK    8  A    between atoms: N_19  and  C_20
REMARK                            x       y       z     vdW  Elec       q    Type
REMARK                         _______ _______ _______ _____ _____    ______ ____
ROOT
ATOM      1  C   UNL     1     -41.853-160.215 310.093  0.00  0.00    +0.000 C 
ATOM      2  O   UNL     1     -42.692-160.195 310.996  0.00  0.00    +0.000 OA
ATOM      3  N   UNL     1     -41.837-159.272 309.045  0.00  0.00    +0.000 N 
ATOM      4  C   UNL     1     -40.625-159.023 308.268  0.00  0.00    +0.000 C 
ENDROOT
BRANCH   3   5
ATOM      5  C   UNL     1     -42.880-158.212 309.000  0.00  0.00    +0.000 C 
ATOM      6  C   UNL     1     -42.411-156.879 309.650  0.00  0.00    +0.000 C 
ATOM      7  C   UNL     1     -43.179-155.774 308.952  0.00  0.00    +0.000 C 
ATOM      8  N   UNL     1     -43.472-156.332 307.671  0.00  0.00    +0.000 N 
ATOM      9  C   UNL     1     -43.269-157.700 307.600  0.00  0.00    +0.000 C 
ATOM     10  O   UNL     1     -43.363-158.342 306.549  0.00  0.00    +0.000 OA
BRANCH   8  11
ATOM     11  C   UNL     1     -43.953-155.603 306.575  0.00  0.00    +0.000 A 
ATOM     12  C   UNL     1     -45.286-155.197 306.540  0.00  0.00    +0.000 A 
ATOM     13  C   UNL     1     -45.733-154.384 305.495  0.00  0.00    +0.000 A 
ATOM     14  C   UNL     1     -44.859-154.002 304.473  0.00  0.00    +0.000 A 
ATOM     15  C   UNL     1     -43.526-154.407 304.506  0.00  0.00    +0.000 A 
ATOM     16  C   UNL     1     -43.075-155.185 305.565  0.00  0.00    +0.000 A 
ATOM     17  F   UNL     1     -41.794-155.583 305.569  0.00  0.00    +0.000 F 
ENDBRANCH   8  11
ENDBRANCH   3   5
BRANCH   1  18
ATOM     18  C   UNL     1     -40.808-161.367 310.096  0.00  0.00    +0.000 C 
BRANCH  18  20
ATOM     19  C   UNL     1     -39.317-161.543 312.177  0.00  0.00    +0.000 C 
ATOM     20  C   UNL     1     -40.664-161.875 311.558  0.00  0.00    +0.000 C 
ENDBRANCH  18  20
BRANCH  18  21
ATOM     21  O   UNL     1     -41.241-162.280 309.036  0.00  0.00    +0.000 OA
BRANCH  21  22
ATOM     22  C   UNL     1     -40.545-163.440 308.833  0.00  0.00    +0.000 A 
ATOM     23  C   UNL     1     -40.907-164.595 309.528  0.00  0.00    +0.000 A 
ATOM     24  C   UNL     1     -40.329-165.828 309.186  0.00  0.00    +0.000 A 
ATOM     25  C   UNL     1     -39.518-165.924 308.060  0.00  0.00    +0.000 A 
ATOM     26  C   UNL     1     -39.075-164.757 307.465  0.00  0.00    +0.000 A 
ATOM     27  C   UNL     1     -39.408-163.526 308.033  0.00  0.00    +0.000 A 
ATOM     28 CL   UNL     1     -38.437-162.163 307.594  0.00  0.00    +0.000 Cl
ENDBRANCH  21  22
ENDBRANCH  18  21
ENDBRANCH   1  18
TORSDOF 6
ENDMDL
MODEL 8
REMARK VINA RESULT:    -8.031      3.724      7.555
REMARK INTER + INTRA:         -11.187
REMARK INTER:                 -11.101
REMARK INTRA:                  -0.086
REMARK UNBOUND:                -0.338
REMARK  Name = 
REMARK  8 active torsions:
REMARK  status: ('A' for Active; 'I' for Inactive)
REMARK    1  A    between atoms: C_1  and  C_2
REMARK    2  A    between atoms: C_2  and  C_3
REMARK    3  A    between atoms: C_3  and  O_4
REMARK    4  A    between atoms: C_3  and  C_12
REMARK    5  A    between atoms: O_4  and  C_5
REMARK    6  A    between atoms: N_14  and  C_15
REMARK    7  A    between atoms: N_14  and  C_16
REMARK    8  A    between atoms: N_19  and  C_20
REMARK                            x       y       z     vdW  Elec       q    Type
REMARK                         _______ _______ _______ _____ _____    ______ ____
ROOT
ATOM      1  C   UNL     1     -40.775-161.216 310.168  0.00  0.00    +0.000 C 
ATOM      2  O   UNL     1     -39.588-161.280 309.839  0.00  0.00    +0.000 OA
ATOM      3  N   UNL     1     -41.660-160.248 309.653  0.00  0.00    +0.000 N 
ATOM      4  C   UNL     1     -43.105-160.450 309.684  0.00  0.00    +0.000 C 
ENDROOT
BRANCH   3   5
ATOM      5  C   UNL     1     -41.155-159.239 308.683  0.00  0.00    +0.000 C 
ATOM      6  C   UNL     1     -40.947-159.826 307.258  0.00  0.00    +0.000 C 
ATOM      7  C   UNL     1     -41.137-158.672 306.293  0.00  0.00    +0.000 C 
ATOM      8  N   UNL     1     -41.999-157.784 307.004  0.00  0.00    +0.000 N 
ATOM      9  C   UNL     1     -42.109-158.075 308.353  0.00  0.00    +0.000 C 
ATOM     10  O   UNL     1     -42.891-157.489 309.108  0.00  0.00    +0.000 OA
BRANCH   8  11
ATOM     11  C   UNL     1     -42.662-156.688 306.433  0.00  0.00    +0.000 A 
ATOM     12  C   UNL     1     -42.179-155.397 306.641  0.00  0.00    +0.000 A 
ATOM     13  C   UNL     1     -42.783-154.321 305.986  0.00  0.00    +0.000 A 
ATOM     14  C   UNL     1     -43.883-154.529 305.149  0.00  0.00    +0.000 A 
ATOM     15  C   UNL     1     -44.367-155.819 304.940  0.00  0.00    +0.000 A 
ATOM     16  C   UNL     1     -43.742-156.892 305.563  0.00  0.00    +0.000 A 
ATOM     17  F   UNL     1     -44.235-158.125 305.367  0.00  0.00    +0.000 F 
ENDBRANCH   8  11
ENDBRANCH   3   5
BRANCH   1  18
ATOM     18  C   UNL     1     -41.287-162.222 311.238  0.00  0.00    +0.000 C 
BRANCH  18  20
ATOM     19  C   UNL     1     -41.583-164.260 309.707  0.00  0.00    +0.000 C 
ATOM     20  C   UNL     1     -40.784-163.638 310.840  0.00  0.00    +0.000 C 
ENDBRANCH  18  20
BRANCH  18  21
ATOM     21  O   UNL     1     -40.904-161.639 312.526  0.00  0.00    +0.000 OA
BRANCH  21  22
ATOM     22  C   UNL     1     -41.775-160.794 313.158  0.00  0.00    +0.000 A 
ATOM     23  C   UNL     1     -41.976-159.507 312.659  0.00  0.00    +0.000 A 
ATOM     24  C   UNL     1     -43.005-158.706 313.181  0.00  0.00    +0.000 A 
ATOM     25  C   UNL     1     -43.916-159.249 314.081  0.00  0.00    +0.000 A 
ATOM     26  C   UNL     1     -43.627-160.474 314.652  0.00  0.00    +0.000 A 
ATOM     27  C   UNL     1     -42.418-161.105 314.353  0.00  0.00    +0.000 A 
ATOM     28 CL   UNL     1     -41.872-162.327 315.449  0.00  0.00    +0.000 Cl
ENDBRANCH  21  22
ENDBRANCH  18  21
ENDBRANCH   1  18
TORSDOF 6
ENDMDL
MODEL 9
REMARK VINA RESULT:    -8.012      2.430      4.283
REMARK INTER + INTRA:         -11.160
REMARK INTER:                 -11.494
REMARK INTRA:                   0.333
REMARK UNBOUND:                -0.338
REMARK  Name = 
REMARK  8 active torsions:
REMARK  status: ('A' for Active; 'I' for Inactive)
REMARK    1  A    between atoms: C_1  and  C_2
REMARK    2  A    between atoms: C_2  and  C_3
REMARK    3  A    between atoms: C_3  and  O_4
REMARK    4  A    between atoms: C_3  and  C_12
REMARK    5  A    between atoms: O_4  and  C_5
REMARK    6  A    between atoms: N_14  and  C_15
REMARK    7  A    between atoms: N_14  and  C_16
REMARK    8  A    between atoms: N_19  and  C_20
REMARK                            x       y       z     vdW  Elec       q    Type
REMARK                         _______ _______ _______ _____ _____    ______ ____
ROOT
ATOM      1  C   UNL     1     -40.868-160.551 309.199  0.00  0.00    +0.000 C 
ATOM      2  O   UNL     1     -41.146-159.959 308.154  0.00  0.00    +0.000 OA
ATOM      3  N   UNL     1     -40.192-161.789 309.219  0.00  0.00    +0.000 N 
ATOM      4  C   UNL     1     -39.482-162.244 310.411  0.00  0.00    +0.000 C 
ENDROOT
BRANCH   3   5
ATOM      5  C   UNL     1     -39.807-162.432 307.934  0.00  0.00    +0.000 C 
ATOM      6  C   UNL     1     -38.452-161.907 307.381  0.00  0.00    +0.000 C 
ATOM      7  C   UNL     1     -37.859-163.039 306.567  0.00  0.00    +0.000 C 
ATOM      8  N   UNL     1     -38.429-164.207 307.158  0.00  0.00    +0.000 N 
ATOM      9  C   UNL     1     -39.500-163.941 307.994  0.00  0.00    +0.000 C 
ATOM     10  O   UNL     1     -40.053-164.807 308.679  0.00  0.00    +0.000 OA
BRANCH   8  11
ATOM     11  C   UNL     1     -37.997-165.517 306.913  0.00  0.00    +0.000 A 
ATOM     12  C   UNL     1     -38.899-166.473 306.449  0.00  0.00    +0.000 A 
ATOM     13  C   UNL     1     -38.439-167.749 306.109  0.00  0.00    +0.000 A 
ATOM     14  C   UNL     1     -37.089-168.077 306.260  0.00  0.00    +0.000 A 
ATOM     15  C   UNL     1     -36.185-167.123 306.725  0.00  0.00    +0.000 A 
ATOM     16  C   UNL     1     -36.638-165.845 307.027  0.00  0.00    +0.000 A 
ATOM     17  F   UNL     1     -35.757-164.946 307.492  0.00  0.00    +0.000 F 
ENDBRANCH   8  11
ENDBRANCH   3   5
BRANCH   1  18
ATOM     18  C   UNL     1     -41.336-159.918 310.540  0.00  0.00    +0.000 C 
BRANCH  18  20
ATOM     19  C   UNL     1     -41.928-157.588 311.435  0.00  0.00    +0.000 C 
ATOM     20  C   UNL     1     -41.906-158.507 310.226  0.00  0.00    +0.000 C 
ENDBRANCH  18  20
BRANCH  18  21
ATOM     21  O   UNL     1     -42.183-160.934 311.168  0.00  0.00    +0.000 OA
BRANCH  21  22
ATOM     22  C   UNL     1     -42.409-160.871 312.516  0.00  0.00    +0.000 A 
ATOM     23  C   UNL     1     -43.607-160.339 312.994  0.00  0.00    +0.000 A 
ATOM     24  C   UNL     1     -43.927-160.447 314.357  0.00  0.00    +0.000 A 
ATOM     25  C   UNL     1     -43.128-161.216 315.197  0.00  0.00    +0.000 A 
ATOM     26  C   UNL     1     -41.890-161.625 314.736  0.00  0.00    +0.000 A 
ATOM     27  C   UNL     1     -41.458-161.219 313.472  0.00  0.00    +0.000 A 
ATOM     28 CL   UNL     1     -39.759-161.299 313.154  0.00  0.00    +0.000 Cl
ENDBRANCH  21  22
ENDBRANCH  18  21
ENDBRANCH   1  18
TORSDOF 6
ENDMDL
MODEL 10
REMARK VINA RESULT:    -7.694      2.172      3.516
REMARK INTER + INTRA:         -10.731
REMARK INTER:                 -12.890
REMARK INTRA:                   2.159
REMARK UNBOUND:                -0.338
REMARK  Name = 
REMARK  8 active torsions:
REMARK  status: ('A' for Active; 'I' for Inactive)
REMARK    1  A    between atoms: C_1  and  C_2
REMARK    2  A    between atoms: C_2  and  C_3
REMARK    3  A    between atoms: C_3  and  O_4
REMARK    4  A    between atoms: C_3  and  C_12
REMARK    5  A    between atoms: O_4  and  C_5
REMARK    6  A    between atoms: N_14  and  C_15
REMARK    7  A    between atoms: N_14  and  C_16
REMARK    8  A    between atoms: N_19  and  C_20
REMARK                            x       y       z     vdW  Elec       q    Type
REMARK                         _______ _______ _______ _____ _____    ______ ____
ROOT
ATOM      1  C   UNL     1     -41.264-159.481 308.085  0.00  0.00    +0.000 C 
ATOM      2  O   UNL     1     -40.932-160.196 307.137  0.00  0.00    +0.000 OA
ATOM      3  N   UNL     1     -41.199-159.912 309.425  0.00  0.00    +0.000 N 
ATOM      4  C   UNL     1     -41.151-158.955 310.527  0.00  0.00    +0.000 C 
ENDROOT
BRANCH   3   5
ATOM      5  C   UNL     1     -40.730-161.291 309.728  0.00  0.00    +0.000 C 
ATOM      6  C   UNL     1     -41.868-162.348 309.636  0.00  0.00    +0.000 C 
ATOM      7  C   UNL     1     -41.202-163.656 309.259  0.00  0.00    +0.000 C 
ATOM      8  N   UNL     1     -40.025-163.242 308.566  0.00  0.00    +0.000 N 
ATOM      9  C   UNL     1     -39.723-161.901 308.733  0.00  0.00    +0.000 C 
ATOM     10  O   UNL     1     -38.809-161.335 308.126  0.00  0.00    +0.000 OA
BRANCH   8  11
ATOM     11  C   UNL     1     -39.206-164.090 307.808  0.00  0.00    +0.000 A 
ATOM     12  C   UNL     1     -38.192-163.553 307.015  0.00  0.00    +0.000 A 
ATOM     13  C   UNL     1     -37.314-164.409 306.344  0.00  0.00    +0.000 A 
ATOM     14  C   UNL     1     -37.467-165.795 306.440  0.00  0.00    +0.000 A 
ATOM     15  C   UNL     1     -38.480-166.334 307.232  0.00  0.00    +0.000 A 
ATOM     16  C   UNL     1     -39.328-165.481 307.928  0.00  0.00    +0.000 A 
ATOM     17  F   UNL     1     -40.311-166.017 308.668  0.00  0.00    +0.000 F 
ENDBRANCH   8  11
ENDBRANCH   3   5
BRANCH   1  18
ATOM     18  C   UNL     1     -41.827-158.067 307.767  0.00  0.00    +0.000 C 
BRANCH  18  20
ATOM     19  C   UNL     1     -41.725-157.702 305.229  0.00  0.00    +0.000 C 
ATOM     20  C   UNL     1     -41.027-157.496 306.562  0.00  0.00    +0.000 C 
ENDBRANCH  18  20
BRANCH  18  21
ATOM     21  O   UNL     1     -43.278-158.243 307.673  0.00  0.00    +0.000 OA
BRANCH  21  22
ATOM     22  C   UNL     1     -44.063-157.158 307.396  0.00  0.00    +0.000 A 
ATOM     23  C   UNL     1     -43.782-155.929 307.994  0.00  0.00    +0.000 A 
ATOM     24  C   UNL     1     -44.457-154.773 307.570  0.00  0.00    +0.000 A 
ATOM     25  C   UNL     1     -45.287-154.826 306.455  0.00  0.00    +0.000 A 
ATOM     26  C   UNL     1     -45.647-156.066 305.960  0.00  0.00    +0.000 A 
ATOM     27  C   UNL     1     -45.213-157.220 306.614  0.00  0.00    +0.000 A 
ATOM     28 CL   UNL     1     -46.083-158.682 306.297  0.00  0.00    +0.000 Cl
ENDBRANCH  21  22
ENDBRANCH  18  21
ENDBRANCH   1  18
TORSDOF 6
ENDMDL
